         256 PROCESSORS WORKING

         
 *******************************************************************************
 *                                                                             *
 *                               CRYSTAL23                                     *
 *                      public : 1.0.1 - October 2022                          *
 *                       HTTP://WWW.CRYSTAL.UNITO.IT                           *
 *                                                                             *
 *                              MAIN AUTHORS                                   *
 *                                                                             *
 *  R. DOVESI(1,11), V.R. SAUNDERS(2), C. ROETTI(1,11), R. ORLANDO(1,11),      *
 *  C.M. ZICOVICH-WILSON(1,3), F. PASCALE(4), B. CIVALLERI(1,11),              *
 *  K. DOLL(5), N.M. HARRISON(6), I.J. BUSH(7), Ph. D'ARCO(8),                 *
 *  M. LLUNELL(9), M. CAUSA'(10), Y. NOEL(8), L. MASCHIO(1,11), A. ERBA(1,11)  *
 *  M. RE'RAT(14), S. CASASSA(1,11), B.G. SEARLE(2), J.K. DESMARAIS(1)         *
 *                                                                             *
 *        CONTRIBUTIONS TO THE CODE HAVE ALSO BEEN GIVEN BY                    *
 *                                                                             *
 *  M. FERRABONE(1,11), M. DE LA PIERRE(1,11), M. FERRERO(1,11),               *
 *  J. BAIMA(1,11), E. ALBANESE(1,11), M.F. PEINTINGER(12), R. BAST(13),       *
 *  B. KIRTMAN(15), V. LACIVITA(1,11), R. DEMICHELIS(1,16)                     *
 *  G. BRANDEBURG(17), S. SALUSTRO(1,11), G. SANSONE(1,11)                     *
 *  M.T. RUGGIERO(18), L.E. DAGA(1), L. DONA'(1), A. COSSARD(1)                *
 *                                                                             *
 * (1) THEORETICAL CHEMISTRY GROUP - UNIVERSITA' DI TORINO - TORINO (ITALY)    *
 * (2) SCIENTIFIC COMPUTING DEPARTMENT - STFC DARESBURY (UK)                   *
 * (3) UNIVERSIDAD AUTONOMA DEL ESTADO DE MORELOS - CUERNAVACA (MEXICO)        *
 * (4) UNIVERSITE' DE LORRAINE - NANCY (FRANCE)                                *
 * (5) UNIVERSITAET STUTTGART- STUTTGART (GERMANY)                             *
 * (6) IMPERIAL COLLEGE - LONDON (UK)                                          *
 * (7) SCIENTIFIC COMPUTING DEPARTMENT - STFC RAL (UK)                         *
 * (8) UPMC - SORBONNE UNIVERSITES - PARIS (FRANCE)                            *
 * (9) UNIVERSIDAD DE BARCELONA - BARCELONA (SPAIN)                            *
 *(10) UNIVERSITA' DI NAPOLI "FEDERICO II" - NAPOLI (ITALY)                    *
 *(11) NIS - NANOSTRUCTURED INTERFACES AND SURFACES - TORINO (ITALY)           *
 *(12) MPI FUER CHEMISCHE ENERGIEKONVERSION - MUELHEIM AN DER RUHR (GERMANY)   *
 *(13) UNIVERSITY OF TROMSO - TROMSO (NORWAY)                                  *
 *(14) UNIVERSITE' DE PAU ET DES PAYS DE L'ADOUR - PAU (FRANCE)                *
 *(15) UNIVERSITY OF CALIFORNIA SANTA BARBARA - SANTA BARBARA (USA)            *
 *(16) CURTIN UNIVERSITY - PERTH (AUSTRALIA)                                   *
 *(17) UNIVERSITY COLLEGE LONDON - LONDON (UK)                                 *
 *(18) UNIVERSITY OF VERMONT - BURLINGTON (USA)                                *
 *                                                                             *
 *******************************************************************************
 EEEEEEEEEE STARTING  DATE 25 07 2023 TIME 17:16:51.0
 ICSD_CollCode156894.cif                                                         

 CRYSTAL CALCULATION
 (INPUT ACCORDING TO THE INTERNATIONAL TABLES FOR X-RAY CRYSTALLOGRAPHY)
 CRYSTAL FAMILY                       :  HEXAGONAL   
 CRYSTAL CLASS  (GROTH - 1921)        :  DIHEXAGONAL DIPYRAMIDAL              

 SPACE GROUP (CENTROSYMMETRIC)        :  P 6/M M M       

 LATTICE PARAMETERS  (ANGSTROMS AND DEGREES) - CONVENTIONAL CELL
        A           B           C        ALPHA        BETA       GAMMA
     3.64551     3.64551     3.87281    90.00000    90.00000   120.00000


 NUMBER OF IRREDUCIBLE ATOMS IN THE CONVENTIONAL CELL:    3

 INPUT COORDINATES

 ATOM AT. N.              COORDINATES
   1   3     0.000000000000E+00  0.000000000000E+00  5.000000000000E-01
   2   3     6.666666666670E-01  3.333333333330E-01  0.000000000000E+00
   3   7     0.000000000000E+00  0.000000000000E+00  0.000000000000E+00

 *******************************************************************************

 << INFORMATION >>: FROM NOW ON, ALL COORDINATES REFER TO THE PRIMITIVE CELL

 *******************************************************************************

 LATTICE PARAMETERS  (ANGSTROMS AND DEGREES) - PRIMITIVE CELL
       A          B          C        ALPHA      BETA     GAMMA        VOLUME
    3.64551    3.64551    3.87281    90.00000  90.00000 120.00000     44.573159

 COORDINATES OF THE EQUIVALENT ATOMS (FRACTIONAL UNITS)

 N. ATOM EQUIV AT. N.          X                  Y                  Z

   1   1   1    3 LI    0.00000000000E+00  0.00000000000E+00 -5.00000000000E-01

   2   2   1    3 LI   -3.33333333333E-01  3.33333333333E-01  0.00000000000E+00
   3   2   2    3 LI    3.33333333333E-01 -3.33333333333E-01  0.00000000000E+00

   4   3   1    7 N     0.00000000000E+00  0.00000000000E+00  0.00000000000E+00

 NUMBER OF SYMMETRY OPERATORS         :   24
 *******************************************************************************
 * GEOMETRY EDITING - INPUT COORDINATES ARE GIVEN IN ANGSTROM         
 *******************************************************************************

 GEOMETRY NOW FULLY CONSISTENT WITH THE GROUP

 FRQFRQFRQFRQFRQFRQFRQFRQFRQFRQFRQFRQFRQFRQFRQFRQFRQFRQFRQFRQFRQFRQFRQFRQFRQFRQ

                       FREQUENCY CALCULATION

 OPTIMIZATION PERFORMED BEFORE FREQUENCIES CALCULATION
 *******************************************************************************
 INFORMATION **** NEW DEFAULT **** FINALRUN 4 FOR GEOMETRY OPTIMIZATIONS
 INFORMATION **** NEW DEFAULT **** OPTGEOM OPTIMIZES ATOMIC COORDINATES ONLY
 INFORMATION **** NEW DEFAULT **** TOL. ON ATOMIC DISP TO REDEFINE REF. GEOMETRY: 0.8 Angs
 INFORMATION **** NEW DEFAULT **** N POINTS TO REDEFINE REF. GEOMETRY: N OF OPT DEGS OF FREEDOM
 INFORMATION **** NEW DEFAULT **** TOL. ON ENERGY TO REDEFINE REF. GEOMETRY: 10**-3*(5*N. ATOMS)
 INFORMATION **** FULLOPTG **** FULL OPTIMIZATION (ATOMS AND CELL PARAMETERS)

 IMPORTANT INFORMATION:
 THE COORDINATE SYSTEM ADOPTED IN THE OPTIMIZATION IS NOT IN
 GENERAL HOMOGENEOUS UNITS. FOR THIS REASON THE GRADIENT AND 
 HESSIAN MATRIX IN TERMS OF THIS SYSTEM ARE GIVEN WITHOUT
 UNITS. FOR MORE DETAILS SEE THE MANUAL.

 *******************************************************************************
 COMBINED CELL/ATOM OPTIMIZATION CONTROL

 INITIAL TRUST RADIUS         0.50000 MAXIMUM TRUST RADIUS               0.50000
 MAXIMUM GRADIENT COMPONENT   0.00005 MAXIMUM DISPLACEMENT COMPONENT     0.00018
 R.M.S. OF GRADIENT COMPONENT 0.00003 R.M.S. OF DISPLACEMENT COMPONENTS  0.00012
 THRESHOLD ON ENERGY CHANGE 0.100E-06 EXTRAPOLATING POLYNOMIAL ORDER           2
 MAXIMUM ALLOWED NUMBER OF STEPS   -1 SORTING OF ENERGY POINTS:               NO
 ANALYTICAL  GRADIENT                 HESSIAN UPDATING                      BFGS
 STEP SIZE NUMERICAL GRADIENT 0.00100
 INITIAL HESSIAN MATRIX: SCHLEGEL MODEL 2
 *******************************************************************************

 INFORMATION **** INPFREQ **** IR INTENSITIES EVALUATED THROUGH CPHF APPROACH
 INFORMATION **** INPFREQ **** NEW DEFAULT - IMPOSING ECKART CONDITIONS TO THE HESSIAN

 GCALCO - MAX INDICES DIRECT LATTICE VECTOR    15    15    13
 NO.OF VECTORS CREATED 6999 STARS  382 RMAX    79.60148 BOHR

 GEOMETRY FOR WAVE FUNCTION - DIMENSIONALITY OF THE SYSTEM    3
 (NON PERIODIC DIRECTION: LATTICE PARAMETER FORMALLY SET TO 500)
 *******************************************************************************
 LATTICE PARAMETERS (ANGSTROMS AND DEGREES) - BOHR = 0.5291772083 ANGSTROM
 PRIMITIVE CELL - CENTRING CODE 1/0 VOLUME=    44.573159 - DENSITY  1.306 g/cm^3
         A              B              C           ALPHA      BETA       GAMMA 
     3.64551000     3.64551000     3.87281000    90.000000  90.000000 120.000000
 *******************************************************************************
 ATOMS IN THE ASYMMETRIC UNIT    3 - ATOMS IN THE UNIT CELL:    4
     ATOM                 X/A                 Y/B                 Z/C    
 *******************************************************************************
      1 T   3 LI    0.000000000000E+00  0.000000000000E+00 -5.000000000000E-01
      2 T   3 LI   -3.333333333333E-01  3.333333333333E-01  0.000000000000E+00
      3 F   3 LI    3.333333333333E-01 -3.333333333333E-01  0.000000000000E+00
      4 T   7 N     0.000000000000E+00  0.000000000000E+00  0.000000000000E+00

 T = ATOM BELONGING TO THE ASYMMETRIC UNIT

 ****   24 SYMMOPS - TRANSLATORS IN FRACTIONAL UNITS
 **** MATRICES AND TRANSLATORS IN THE CRYSTALLOGRAPHIC REFERENCE FRAME
   V INV                    ROTATION MATRICES                   TRANSLATORS
   1   1  1.00  0.00  0.00  0.00  1.00  0.00  0.00  0.00  1.00  0.00  0.00  0.00
   2   2 -1.00  0.00  0.00 -0.00 -1.00  0.00  0.00  0.00  1.00  0.00  0.00  0.00
   3   4 -0.00 -1.00  0.00  1.00 -1.00  0.00  0.00  0.00  1.00  0.00  0.00  0.00
   4   3 -1.00  1.00  0.00 -1.00  0.00  0.00  0.00  0.00  1.00  0.00  0.00  0.00
   5   6  1.00 -1.00  0.00  1.00 -0.00  0.00  0.00  0.00  1.00  0.00  0.00  0.00
   6   5  0.00  1.00  0.00 -1.00  1.00  0.00  0.00  0.00  1.00  0.00  0.00  0.00
   7   7  1.00 -1.00  0.00  0.00 -1.00  0.00  0.00  0.00 -1.00  0.00  0.00  0.00
   8   8 -1.00  0.00  0.00 -1.00  1.00  0.00  0.00  0.00 -1.00  0.00  0.00  0.00
   9   9  0.00  1.00  0.00  1.00  0.00  0.00  0.00  0.00 -1.00  0.00  0.00  0.00
  10  10 -0.00 -1.00  0.00 -1.00 -0.00  0.00  0.00  0.00 -1.00  0.00  0.00  0.00
  11  11  1.00  0.00  0.00  1.00 -1.00  0.00  0.00  0.00 -1.00  0.00  0.00  0.00
  12  12 -1.00  1.00  0.00 -0.00  1.00  0.00  0.00  0.00 -1.00  0.00  0.00  0.00
  13  13 -1.00  0.00  0.00 -0.00 -1.00  0.00  0.00  0.00 -1.00  0.00  0.00  0.00
  14  14  1.00  0.00  0.00  0.00  1.00  0.00  0.00  0.00 -1.00  0.00  0.00  0.00
  15  16  0.00  1.00  0.00 -1.00  1.00  0.00  0.00  0.00 -1.00  0.00  0.00  0.00
  16  15  1.00 -1.00  0.00  1.00 -0.00  0.00  0.00  0.00 -1.00  0.00  0.00  0.00
  17  18 -1.00  1.00  0.00 -1.00  0.00  0.00  0.00  0.00 -1.00  0.00  0.00  0.00
  18  17 -0.00 -1.00  0.00  1.00 -1.00  0.00  0.00  0.00 -1.00  0.00  0.00  0.00
  19  19 -1.00  1.00  0.00 -0.00  1.00  0.00  0.00  0.00  1.00  0.00  0.00  0.00
  20  20  1.00  0.00  0.00  1.00 -1.00  0.00  0.00  0.00  1.00  0.00  0.00  0.00
  21  21 -0.00 -1.00  0.00 -1.00 -0.00  0.00  0.00  0.00  1.00  0.00  0.00  0.00
  22  22  0.00  1.00  0.00  1.00  0.00  0.00  0.00  0.00  1.00  0.00  0.00  0.00
  23  23 -1.00  0.00  0.00 -1.00  1.00  0.00  0.00  0.00  1.00  0.00  0.00  0.00
  24  24  1.00 -1.00  0.00  0.00 -1.00  0.00  0.00  0.00  1.00  0.00  0.00  0.00

 DIRECT LATTICE VECTORS CARTESIAN COMPONENTS (ANGSTROM)
          X                    Y                    Z
   0.315710426975E+01  -0.182275500000E+01   0.000000000000E+00
   0.000000000000E+00   0.364551000000E+01   0.000000000000E+00
   0.000000000000E+00   0.000000000000E+00   0.387281000000E+01


 CARTESIAN COORDINATES - PRIMITIVE CELL
 *******************************************************************************
 *      ATOM          X(ANGSTROM)         Y(ANGSTROM)         Z(ANGSTROM)
 *******************************************************************************
    1     3 LI    0.000000000000E+00  0.000000000000E+00  1.936405000000E+00
    2     3 LI   -1.052368089917E+00 -1.822755000000E+00  0.000000000000E+00
    3     3 LI   -2.104736179833E+00 -3.046419968289E-16  0.000000000000E+00
    4     7 N     0.000000000000E+00  0.000000000000E+00  0.000000000000E+00

 *******************************************************************************
 LOCAL ATOMIC FUNCTIONS BASIS SET
 *******************************************************************************
   ATOM   X(AU)   Y(AU)   Z(AU)  N. TYPE  EXPONENT  S COEF   P COEF   D/F/G COEF
 *******************************************************************************
   1 LI   0.000   0.000   3.659
                                  1 S  
                                         6.269E+03 2.054E-04 0.000E+00 0.000E+00
                                         9.403E+02 1.592E-03 0.000E+00 0.000E+00
                                         2.142E+02 8.287E-03 0.000E+00 0.000E+00
                                         6.076E+01 3.386E-02 0.000E+00 0.000E+00
                                         1.992E+01 1.110E-01 0.000E+00 0.000E+00
                                         7.317E+00 2.745E-01 0.000E+00 0.000E+00
                                  2 S  
                                         2.972E+00 2.379E-01 0.000E+00 0.000E+00
                                         1.264E+00 3.077E-01 0.000E+00 0.000E+00
                                  3 S  
                                         5.026E-01 1.000E+00 0.000E+00 0.000E+00
                                  4 S  
                                         1.201E-01 1.000E+00 0.000E+00 0.000E+00
                           5-     7 P  
                                         1.320E-01 0.000E+00 1.000E+00 0.000E+00
   2 LI  -1.989  -3.445   0.000
   3 LI  -3.977  -0.000   0.000
   4 N    0.000   0.000   0.000
                                 22 S  
                                         1.973E+04 2.189E-04 0.000E+00 0.000E+00
                                         2.958E+03 1.696E-03 0.000E+00 0.000E+00
                                         6.732E+02 8.795E-03 0.000E+00 0.000E+00
                                         1.907E+02 3.536E-02 0.000E+00 0.000E+00
                                         6.230E+01 1.110E-01 0.000E+00 0.000E+00
                                         2.265E+01 2.498E-01 0.000E+00 0.000E+00
                                 23 S  
                                         8.979E+00 4.062E-01 0.000E+00 0.000E+00
                                         3.686E+00 2.434E-01 0.000E+00 0.000E+00
                                 24 S  
                                         7.865E-01 1.000E+00 0.000E+00 0.000E+00
                                 25 S  
                                         2.678E-01 1.000E+00 0.000E+00 0.000E+00
                          26-    28 P  
                                         4.920E+01 0.000E+00 5.555E-03 0.000E+00
                                         1.135E+01 0.000E+00 3.805E-02 0.000E+00
                                         3.427E+00 0.000E+00 1.495E-01 0.000E+00
                                         1.179E+00 0.000E+00 3.495E-01 0.000E+00
                          29-    31 P  
                                         3.780E-01 0.000E+00 1.000E+00 0.000E+00
                          32-    34 P  
                                         1.474E-01 0.000E+00 1.000E+00 0.000E+00
                          35-    39 D  
                                         3.612E-01 0.000E+00 0.000E+00 1.000E+00
 INFORMATION **** SET_MPP **** PCRYSTAL CALCULATION
 INFORMATION **** READM2 **** NEW DEFAULT: FOCK/KS MATRIX MIXING SET TO 30 %
 INFORMATION **** READM2 **** NEW DEFAULT: FULL DIRECT SCF MODE
 INFORMATION **** READM2 **** NEW DEFAULT: COULOMB BIPOLAR BUFFER SET TO 32 Mb
 INFORMATION **** READM2 **** NEW DEFAULT: EXCHANGE BIPOLAR BUFFER SET TO 32 Mb

 *******************************************************************************
 NEW DEFAULT: DFT INTEGRATION GRID INCREASED TO XLGRID
 NEW DEFAULT: DIIS ACCELERATOR ACTIVE
 USE KEYWORD NODIIS TO TURN IT OFF
 *******************************************************************************

 INFORMATION **** RDDFTP **** MAX N. OF POINTS ALLOWED IN A BATCH FOR NUMERICAL INTEGRATION         200
 INFORMATION **** TOLINTEG **** COULOMB AND EXCHANGE SERIES TOLERANCES MODIFIED
 INFORMATION **** TOLDEE **** SCF TOL ON TOTAL ENERGY SET TO          11
 INFORMATION **** EXCHSIZE **** EXCHANGE BIPOLAR BUFFER SIZE SET TO    12012489
 INFORMATION **** MAXCYCLE **** MAX NUMBER OF SCF CYCLES SET TO         150
 *******************************************************************************
 N. OF ATOMS PER CELL         4  COULOMB OVERLAP TOL         (T1) 10**   -7
 NUMBER OF SHELLS            23  COULOMB PENETRATION TOL     (T2) 10**   -7
 NUMBER OF AO                39  EXCHANGE OVERLAP TOL        (T3) 10**   -7
 N. OF ELECTRONS PER CELL    16  EXCHANGE PSEUDO OVP (F(G))  (T4) 10**   -9
 CORE ELECTRONS PER CELL      8  EXCHANGE PSEUDO OVP (P(G))  (T5) 10**  -30
 N. OF SYMMETRY OPERATORS    24  POLE ORDER IN MONO ZONE                  4
 *******************************************************************************
 TYPE OF CALCULATION :  RESTRICTED CLOSED SHELL
 KOHN-SHAM HAMILTONIAN

 (EXCHANGE)[CORRELATION] FUNCTIONAL:(PERDEW-BURKE-ERNZERHOF)[PERDEW-BURKE-ERNZERHOF]


 HYBRID EXCHANGE - PERCENTAGE OF FOCK EXCHANGE    25.0000

 CAPPA:IS1  8;IS2  8;IS3  8; K PTS MONK NET  50; SYMMOPS:K SPACE  24;G SPACE  24

 *******************************************************************************
 MAX NUMBER OF SCF CYCLES     150  CONVERGENCE ON DELTAP        10**-21
 WEIGHT OF F(I) IN F(I+1)      30% CONVERGENCE ON ENERGY        10**-11
 SHRINK. FACT.(MONKH.)    8  8  8  NUMBER OF K POINTS IN THE IBZ     50
 SHRINKING FACTOR(GILAT NET)    8  NUMBER OF K POINTS(GILAT NET)     50
 *******************************************************************************
 *** K POINTS COORDINATES (OBLIQUE COORDINATES IN UNITS OF IS =  8)
   1-R(  0  0  0)   2-C(  1  0  0)   3-C(  2  0  0)   4-C(  3  0  0)
   5-R(  4  0  0)   6-C(  1  1  0)   7-C(  2  1  0)   8-C(  3  1  0)
   9-C(  2  2  0)  10-C(  3  2  0)  11-C(  0  0  1)  12-C(  1  0  1)
  13-C(  2  0  1)  14-C(  3  0  1)  15-C(  4  0  1)  16-C(  1  1  1)
  17-C(  2  1  1)  18-C(  3  1  1)  19-C(  2  2  1)  20-C(  3  2  1)
  21-C(  0  0  2)  22-C(  1  0  2)  23-C(  2  0  2)  24-C(  3  0  2)
  25-C(  4  0  2)  26-C(  1  1  2)  27-C(  2  1  2)  28-C(  3  1  2)
  29-C(  2  2  2)  30-C(  3  2  2)  31-C(  0  0  3)  32-C(  1  0  3)
  33-C(  2  0  3)  34-C(  3  0  3)  35-C(  4  0  3)  36-C(  1  1  3)
  37-C(  2  1  3)  38-C(  3  1  3)  39-C(  2  2  3)  40-C(  3  2  3)
  41-R(  0  0  4)  42-C(  1  0  4)  43-C(  2  0  4)  44-C(  3  0  4)
  45-R(  4  0  4)  46-C(  1  1  4)  47-C(  2  1  4)  48-C(  3  1  4)
  49-C(  2  2  4)  50-C(  3  2  4)

 DIRECT LATTICE VECTORS COMPON. (A.U.)     RECIP. LATTICE VECTORS COMPON. (A.U.) 
        X            Y            Z              X            Y            Z
    5.9660624   -3.4445078    0.0000000      1.0531545    0.0000000    0.0000000
    0.0000000    6.8890155    0.0000000      0.5265772    0.9120585   -0.0000000
    0.0000000    0.0000000    7.3185503     -0.0000000    0.0000000    0.8585287

 DISK SPACE FOR EIGENVECTORS (FTN 10)      146016 REALS

 SYMMETRY ADAPTION OF THE BLOCH FUNCTIONS ENABLED
 TTTTTTTTTTTTTTTTTTTTTTTTTTTTTT gordsh1     TELAPSE        4.38 TCPU        2.13

 MATRIX SIZE: P(G)  293221, F(G)   24514, P(G) IRR   11947, F(G) IRR    2891
 MAX G-VECTOR INDEX FOR 1- AND 2-ELECTRON INTEGRALS 833

 TTTTTTTTTTTTTTTTTTTTTTTTTTTTTT INPUT       TELAPSE        4.38 TCPU        2.14

 NEIGHBORS OF THE NON-EQUIVALENT ATOMS

 N = NUMBER OF NEIGHBORS AT DISTANCE R
    ATOM  N     R/ANG      R/AU   NEIGHBORS (ATOM LABELS AND CELL INDICES)
   1 LI   2     1.9364     3.6593    4 N    0 0 0    4 N    0 0 1
   1 LI  12     2.8600     5.4046    2 LI   0 0 0    2 LI   1 1 0    2 LI   0 1 0
                                     2 LI   0 0 1    2 LI   1 1 1    2 LI   0 1 1
                                     3 LI   1 1 0    3 LI   0 0 0    3 LI   1 0 0
                                     3 LI   1 1 1    3 LI   0 0 1    3 LI   1 0 1
   1 LI   6     3.6455     6.8890    1 LI  -1-1 0    1 LI   1 1 0    1 LI  -1 0 0
                                     1 LI   1 0 0    1 LI   0-1 0    1 LI   0 1 0
   1 LI   2     3.8728     7.3186    1 LI   0 0-1    1 LI   0 0 1
   1 LI  12     4.1279     7.8006    4 N    1 1 0    4 N   -1-1 0    4 N    1 0 0
                                     4 N   -1 0 0    4 N    0 1 0    4 N    0-1 0
                                     4 N    1 1 1    4 N   -1-1 1    4 N    1 0 1
                                     4 N   -1 0 1    4 N    0 1 1    4 N    0-1 1
   1 LI  12     4.6335     8.7560    2 LI   1 0 0    2 LI  -1 0 0    2 LI   1 0 1
                                     2 LI  -1 0 1    2 LI   1 2 0    2 LI   1 2 1
                                     3 LI   0 1 0    3 LI   2 1 0    3 LI   0 1 1
                                     3 LI   2 1 1    3 LI   0-1 0    3 LI   0-1 1

   2 LI   3     2.1047     3.9774    3 LI   0 0 0    3 LI   1 0 0    3 LI   0-1 0
   2 LI   3     2.1047     3.9774    4 N    0 0 0    4 N   -1-1 0    4 N    0-1 0
   2 LI   6     2.8600     5.4046    1 LI   0 0 0    1 LI  -1-1 0    1 LI   0-1 0
                                     1 LI   0 0-1    1 LI  -1-1-1    1 LI   0-1-1
   2 LI   6     3.6455     6.8890    2 LI  -1-1 0    2 LI   1 1 0    2 LI  -1 0 0
                                     2 LI   1 0 0    2 LI   0-1 0    2 LI   0 1 0
   2 LI   2     3.8728     7.3186    2 LI   0 0-1    2 LI   0 0 1
   2 LI   3     4.2095     7.9547    3 LI   1 1 0    3 LI  -1-1 0    3 LI   1-1 0

   4 N    2     1.9364     3.6593    1 LI   0 0 0    1 LI   0 0-1
   4 N    6     2.1047     3.9774    2 LI   0 0 0    2 LI   1 1 0    2 LI   0 1 0
                                     3 LI   1 1 0    3 LI   0 0 0    3 LI   1 0 0
   4 N    6     3.6455     6.8890    4 N   -1-1 0    4 N    1 1 0    4 N   -1 0 0
                                     4 N    1 0 0    4 N    0-1 0    4 N    0 1 0
   4 N    2     3.8728     7.3186    4 N    0 0-1    4 N    0 0 1
   4 N   12     4.1279     7.8006    1 LI  -1-1 0    1 LI   1 1 0    1 LI  -1 0 0
                                     1 LI   1 0 0    1 LI   0-1 0    1 LI   0 1 0
                                     1 LI  -1-1-1    1 LI   1 1-1    1 LI  -1 0-1
                                     1 LI   1 0-1    1 LI   0-1-1    1 LI   0 1-1
   4 N    6     4.2095     7.9547    2 LI  -1 0 0    2 LI   1 0 0    2 LI   1 2 0
                                     3 LI   2 1 0    3 LI   0 1 0    3 LI   0-1 0


 SYMMETRY ALLOWED ELASTIC DISTORTION 1
  0.5773503  0.0000000  0.0000000
  0.0000000  0.5773503  0.0000000
  0.0000000  0.0000000  0.5773503

 SYMMETRY ALLOWED ELASTIC DISTORTION 2
  0.4082483  0.0000000  0.0000000
  0.0000000  0.4082483  0.0000000
  0.0000000  0.0000000 -0.8164966

 THERE ARE NO SYMMETRY ALLOWED DIRECTIONS
 WARNING **** INT_SCREEN **** NO DEGREES OF FREEDOM TO OPTIMIZE.
 CONTINUING WITH FREQUENCIES CALCULATION

 WARNING **** INT_SCREEN **** CELL PARAMETERS OPTIMIZATION ONLY
 TTTTTTTTTTTTTTTTTTTTTTTTTTTTTT SYMM        TELAPSE        4.41 TCPU        2.17
 TTTTTTTTTTTTTTTTTTTTTTTTTTTTTT INT_SCREEN  TELAPSE        4.42 TCPU        2.17

 *******************************************************************************
 *                             OPTIMIZATION STARTS                             *
 *******************************************************************************
 RECLASIFICATION OF INDICES FOR INTEGRAL CALC ACCORDING TO DIFFERENT CRITERIA:
           FIXDELTE                  FIXDELTX              FIXDELTN
          0.10000000E-01           0.80000000                 10
 *******************************************************************************

 *******************************************************************************
 CELL OPTIMIZATION - POINT    1

 DFT PARAMETERS

     ATOM       ELECTRONS   NET CHARGE   R(ANGSTROM)
   1   3  LI      3.0000      0.0000     1.57000000
   4   7  N       7.0000      0.0000     0.74000000

 SIZE OF GRID=      13617
 TTTTTTTTTTTTTTTTTTTTTTTTTTTTTT MAKE_GRID2  TELAPSE       10.89 TCPU        8.61
 BECKE WEIGHT FUNCTION
 RADSAFE =     2.00
 TOLERANCES - DENSITY:10**- 6; POTENTIAL:10**- 9; GRID WGT:10**-14

 RADIAL INTEGRATION  - INTERVALS (POINTS,UPPER LIMIT):            1( 99,  4.0*R)

 ANGULAR INTEGRATION - INTERVALS (ACCURACY LEVEL [N. POINTS] UPPER LIMIT):
  1(  6[ 146]   0.2)  2( 11[ 302]   0.5)  3( 14[ 590]   0.9)  4( 18[1454]   3.5)
  5( 14[ 590]9999.0)
 TTTTTTTTTTTTTTTTTTTTTTTTTTTTTT INT_CALC    TELAPSE       10.92 TCPU        8.64

 *******************************************************************************
 ICSD_CollCode156894.cif                                                         
 CRYSTAL - SCF - TYPE OF CALCULATION :  RESTRICTED CLOSED SHELL
 *******************************************************************************

 CAPPA:IS1  8;IS2  8;IS3  8; K PTS MONK NET  50; SYMMOPS:K SPACE  24;G SPACE  24

 TTTTTTTTTTTTTTTTTTTTTTTTTTTTTT SDIK        TELAPSE       10.98 TCPU        8.70

 AAAAAAAAAAAAAAAAAAAAAAAAAAAAAAAAAAAAAAAAAAAAAAAAAAAAAAAAAAAAAAAAAAAAAAAAAAAAAAA
         ATOMIC WAVEFUNCTION(S)


 NUCLEAR CHARGE  3.0  SYMMETRY SPECIES            S
 N. ELECTRONS    3.0  NUMBER OF PRIMITIVE GTOS   10
                      NUMBER OF CONTRACTED GTOS   4
                      NUMBER OF CLOSED SHELLS     1
                      OPEN SHELL OCCUPATION       1

  ZNUC  SCFIT    TOTAL HF ENERGY   KINETIC ENERGY   VIRIAL THEOREM             ACCURACY
   3.0     6    -7.379265796E+00  7.680406116E+00 -1.960791094E+00  2.4E-06

 NUCLEAR CHARGE  7.0  SYMMETRY SPECIES            S    P
 N. ELECTRONS    7.0  NUMBER OF PRIMITIVE GTOS   10    6
                      NUMBER OF CONTRACTED GTOS   4    3
                      NUMBER OF CLOSED SHELLS     2    0
                      OPEN SHELL OCCUPATION       0    3

  ZNUC  SCFIT    TOTAL HF ENERGY   KINETIC ENERGY   VIRIAL THEOREM             ACCURACY
   7.0    11    -5.439370231E+01  5.446073132E+01 -1.998769223E+00  4.0E-06

 AAAAAAAAAAAAAAAAAAAAAAAAAAAAAAAAAAAAAAAAAAAAAAAAAAAAAAAAAAAAAAAAAAAAAAAAAAAAAAA

 TTTTTTTTTTTTTTTTTTTTTTTTTTTTTT MOQGAD      TELAPSE       10.99 TCPU        8.71
 TTTTTTTTTTTTTTTTTTTTTTTTTTTTTT SHELLXN     TELAPSE       12.38 TCPU       10.09
 TTTTTTTTTTTTTTTTTTTTTTTTTTTTTT MONMO3      TELAPSE       12.38 TCPU       10.09
 NUMERICALLY INTEGRATED DENSITY     15.9999807281
 TTTTTTTTTTTTTTTTTTTTTTTTTTTTTT NUMDFT      TELAPSE       12.46 TCPU       10.17
 CYC   0 ETOT(AU) -7.724924083021E+01 DETOT -7.72E+01 tst  0.00E+00 PX  1.00E+00
 TTTTTTTTTTTTTTTTTTTTTTTTTTTTTT DIIS        TELAPSE       12.47 TCPU       10.18
 TTTTTTTTTTTTTTTTTTTTTTTTTTTTTT FDIK        TELAPSE       12.47 TCPU       10.18
 INSULATING STATE
 TOP OF VALENCE BANDS -    BAND      8; K   41; EIG -2.9643460E-01 AU
 TOP OF VALENCE BANDS -    BAND      8; K    1; EIG -3.0062044E-01 AU
 BOTTOM OF VIRTUAL BANDS - BAND      9; K    1; EIG -1.8390486E-01 AU
 INDIRECT ENERGY BAND GAP:   3.0621 eV
 TTTTTTTTTTTTTTTTTTTTTTTTTTTTTT PDIG        TELAPSE       12.48 TCPU       10.18
 TTTTTTTTTTTTTTTTTTTTTTTTTTTTTT MOQGAD      TELAPSE       12.48 TCPU       10.18
 TTTTTTTTTTTTTTTTTTTTTTTTTTTTTT SHELLXN     TELAPSE       13.88 TCPU       11.58
 TTTTTTTTTTTTTTTTTTTTTTTTTTTTTT MONMO3      TELAPSE       13.88 TCPU       11.58
 NUMERICALLY INTEGRATED DENSITY     15.9999720083
 TTTTTTTTTTTTTTTTTTTTTTTTTTTTTT NUMDFT      TELAPSE       13.97 TCPU       11.66
 CYC   1 ETOT(AU) -7.718212317108E+01 DETOT  6.71E-02 tst  0.00E+00 PX  1.00E+00
 TTTTTTTTTTTTTTTTTTTTTTTTTTTTTT DIIS        TELAPSE       13.97 TCPU       11.66
 DIIS TEST: 0.97617E+00 AT SCF   CYCLE   1 - MIX   30 %
 TTTTTTTTTTTTTTTTTTTTTTTTTTTTTT FDIK        TELAPSE       13.98 TCPU       11.67
 POSSIBLY CONDUCTING STATE - EFERMI(AU) -9.0279940E-02 (RES. CHARGE  7.92E-13;IT.  8)
 TTTTTTTTTTTTTTTTTTTTTTTTTTTTTT PDIG        TELAPSE       13.98 TCPU       11.67
 TTTTTTTTTTTTTTTTTTTTTTTTTTTTTT MOQGAD      TELAPSE       13.98 TCPU       11.67
 TTTTTTTTTTTTTTTTTTTTTTTTTTTTTT SHELLXN     TELAPSE       15.38 TCPU       13.07
 TTTTTTTTTTTTTTTTTTTTTTTTTTTTTT MONMO3      TELAPSE       15.39 TCPU       13.07
 NUMERICALLY INTEGRATED DENSITY     15.9999898062
 TTTTTTTTTTTTTTTTTTTTTTTTTTTTTT NUMDFT      TELAPSE       15.47 TCPU       13.15
 CYC   2 ETOT(AU) -7.712449551625E+01 DETOT  5.76E-02 tst  5.97E-02 PX  1.91E-01
 TTTTTTTTTTTTTTTTTTTTTTTTTTTTTT DIIS        TELAPSE       15.47 TCPU       13.16
 DIIS TEST: 0.15002E+01 AT SCF   CYCLE   2 - DIIS ACTIVE - HISTORY:     2 CYCLES
 TTTTTTTTTTTTTTTTTTTTTTTTTTTTTT FDIK        TELAPSE       15.48 TCPU       13.16
 INSULATING STATE
 TOP OF VALENCE BANDS -    BAND      8; K   41; EIG -2.2807784E-01 AU
 TOP OF VALENCE BANDS -    BAND      8; K    1; EIG -2.3489049E-01 AU
 BOTTOM OF VIRTUAL BANDS - BAND      9; K    1; EIG -1.3016698E-01 AU
 INDIRECT ENERGY BAND GAP:   2.6643 eV
 TTTTTTTTTTTTTTTTTTTTTTTTTTTTTT PDIG        TELAPSE       15.49 TCPU       13.16
 TTTTTTTTTTTTTTTTTTTTTTTTTTTTTT MOQGAD      TELAPSE       15.49 TCPU       13.17
 TTTTTTTTTTTTTTTTTTTTTTTTTTTTTT SHELLXN     TELAPSE       16.89 TCPU       14.56
 TTTTTTTTTTTTTTTTTTTTTTTTTTTTTT MONMO3      TELAPSE       16.90 TCPU       14.56
 NUMERICALLY INTEGRATED DENSITY     15.9999803918
 TTTTTTTTTTTTTTTTTTTTTTTTTTTTTT NUMDFT      TELAPSE       16.98 TCPU       14.65
 CYC   3 ETOT(AU) -7.732750422320E+01 DETOT -2.03E-01 tst  8.47E-03 PX  1.01E-01
 TTTTTTTTTTTTTTTTTTTTTTTTTTTTTT DIIS        TELAPSE       16.98 TCPU       14.65
 DIIS TEST: 0.14091E-02 AT SCF   CYCLE   3 - DIIS ACTIVE - HISTORY:     3 CYCLES
 TTTTTTTTTTTTTTTTTTTTTTTTTTTTTT FDIK        TELAPSE       17.01 TCPU       14.67
 INSULATING STATE
 TOP OF VALENCE BANDS -    BAND      8; K   41; EIG -2.3519907E-01 AU
 TOP OF VALENCE BANDS -    BAND      8; K    1; EIG -2.4179115E-01 AU
 BOTTOM OF VIRTUAL BANDS - BAND      9; K    1; EIG -1.3402708E-01 AU
 INDIRECT ENERGY BAND GAP:   2.7530 eV
 TTTTTTTTTTTTTTTTTTTTTTTTTTTTTT PDIG        TELAPSE       17.01 TCPU       14.68
 TTTTTTTTTTTTTTTTTTTTTTTTTTTTTT MOQGAD      TELAPSE       17.01 TCPU       14.68
 TTTTTTTTTTTTTTTTTTTTTTTTTTTTTT SHELLXN     TELAPSE       18.41 TCPU       16.07
 TTTTTTTTTTTTTTTTTTTTTTTTTTTTTT MONMO3      TELAPSE       18.41 TCPU       16.07
 NUMERICALLY INTEGRATED DENSITY     15.9999802787
 TTTTTTTTTTTTTTTTTTTTTTTTTTTTTT NUMDFT      TELAPSE       18.50 TCPU       16.16
 CYC   4 ETOT(AU) -7.732769267752E+01 DETOT -1.88E-04 tst  9.93E-06 PX  9.84E-03
 TTTTTTTTTTTTTTTTTTTTTTTTTTTTTT DIIS        TELAPSE       18.51 TCPU       16.16
 DIIS TEST: 0.11189E-03 AT SCF   CYCLE   4 - DIIS ACTIVE - HISTORY:     4 CYCLES
 TTTTTTTTTTTTTTTTTTTTTTTTTTTTTT FDIK        TELAPSE       18.51 TCPU       16.16
 INSULATING STATE
 TOP OF VALENCE BANDS -    BAND      8; K   41; EIG -2.3779955E-01 AU
 TOP OF VALENCE BANDS -    BAND      8; K    1; EIG -2.4434950E-01 AU
 BOTTOM OF VIRTUAL BANDS - BAND      9; K    1; EIG -1.3516480E-01 AU
 INDIRECT ENERGY BAND GAP:   2.7928 eV
 TTTTTTTTTTTTTTTTTTTTTTTTTTTTTT PDIG        TELAPSE       18.52 TCPU       16.17
 TTTTTTTTTTTTTTTTTTTTTTTTTTTTTT MOQGAD      TELAPSE       18.52 TCPU       16.17
 TTTTTTTTTTTTTTTTTTTTTTTTTTTTTT SHELLXN     TELAPSE       19.92 TCPU       17.56
 TTTTTTTTTTTTTTTTTTTTTTTTTTTTTT MONMO3      TELAPSE       19.92 TCPU       17.56
 NUMERICALLY INTEGRATED DENSITY     15.9999801756
 TTTTTTTTTTTTTTTTTTTTTTTTTTTTTT NUMDFT      TELAPSE       20.01 TCPU       17.65
 CYC   5 ETOT(AU) -7.732771010869E+01 DETOT -1.74E-05 tst  1.67E-06 PX  1.25E-03
 TTTTTTTTTTTTTTTTTTTTTTTTTTTTTT DIIS        TELAPSE       20.01 TCPU       17.65
 DIIS TEST: 0.44107E-06 AT SCF   CYCLE   5 - DIIS ACTIVE - HISTORY:     5 CYCLES
 TTTTTTTTTTTTTTTTTTTTTTTTTTTTTT FDIK        TELAPSE       20.01 TCPU       17.66
 INSULATING STATE
 TOP OF VALENCE BANDS -    BAND      8; K   41; EIG -2.3771204E-01 AU
 TOP OF VALENCE BANDS -    BAND      8; K    1; EIG -2.4428045E-01 AU
 BOTTOM OF VIRTUAL BANDS - BAND      9; K    1; EIG -1.3511674E-01 AU
 INDIRECT ENERGY BAND GAP:   2.7918 eV
 TTTTTTTTTTTTTTTTTTTTTTTTTTTTTT PDIG        TELAPSE       20.02 TCPU       17.66
 TTTTTTTTTTTTTTTTTTTTTTTTTTTTTT MOQGAD      TELAPSE       20.02 TCPU       17.66
 TTTTTTTTTTTTTTTTTTTTTTTTTTTTTT SHELLXN     TELAPSE       21.42 TCPU       19.05
 TTTTTTTTTTTTTTTTTTTTTTTTTTTTTT MONMO3      TELAPSE       21.42 TCPU       19.06
 NUMERICALLY INTEGRATED DENSITY     15.9999801776
 TTTTTTTTTTTTTTTTTTTTTTTTTTTTTT NUMDFT      TELAPSE       21.51 TCPU       19.14
 CYC   6 ETOT(AU) -7.732771026334E+01 DETOT -1.55E-07 tst  1.54E-08 PX  1.27E-04
 TTTTTTTTTTTTTTTTTTTTTTTTTTTTTT DIIS        TELAPSE       21.51 TCPU       19.14
 DIIS TEST: 0.23147E-07 AT SCF   CYCLE   6 - DIIS ACTIVE - HISTORY:     6 CYCLES
 TTTTTTTTTTTTTTTTTTTTTTTTTTTTTT FDIK        TELAPSE       21.52 TCPU       19.15
 INSULATING STATE
 TOP OF VALENCE BANDS -    BAND      8; K   41; EIG -2.3768842E-01 AU
 TOP OF VALENCE BANDS -    BAND      8; K    1; EIG -2.4425866E-01 AU
 BOTTOM OF VIRTUAL BANDS - BAND      9; K    1; EIG -1.3510206E-01 AU
 INDIRECT ENERGY BAND GAP:   2.7915 eV
 TTTTTTTTTTTTTTTTTTTTTTTTTTTTTT PDIG        TELAPSE       21.52 TCPU       19.15
 TTTTTTTTTTTTTTTTTTTTTTTTTTTTTT MOQGAD      TELAPSE       21.52 TCPU       19.15
 TTTTTTTTTTTTTTTTTTTTTTTTTTTTTT SHELLXN     TELAPSE       22.92 TCPU       20.54
 TTTTTTTTTTTTTTTTTTTTTTTTTTTTTT MONMO3      TELAPSE       22.93 TCPU       20.55
 NUMERICALLY INTEGRATED DENSITY     15.9999801784
 TTTTTTTTTTTTTTTTTTTTTTTTTTTTTT NUMDFT      TELAPSE       23.01 TCPU       20.63
 CYC   7 ETOT(AU) -7.732771027695E+01 DETOT -1.36E-08 tst  1.25E-09 PX  2.81E-05
 TTTTTTTTTTTTTTTTTTTTTTTTTTTTTT DIIS        TELAPSE       23.01 TCPU       20.63
 DIIS TEST: 0.56265E-10 AT SCF   CYCLE   7 - DIIS ACTIVE - HISTORY:     7 CYCLES
 TTTTTTTTTTTTTTTTTTTTTTTTTTTTTT FDIK        TELAPSE       23.02 TCPU       20.64
 INSULATING STATE
 TOP OF VALENCE BANDS -    BAND      8; K   41; EIG -2.3768777E-01 AU
 TOP OF VALENCE BANDS -    BAND      8; K    1; EIG -2.4425798E-01 AU
 BOTTOM OF VIRTUAL BANDS - BAND      9; K    1; EIG -1.3510158E-01 AU
 INDIRECT ENERGY BAND GAP:   2.7915 eV
 TTTTTTTTTTTTTTTTTTTTTTTTTTTTTT PDIG        TELAPSE       23.02 TCPU       20.64
 TTTTTTTTTTTTTTTTTTTTTTTTTTTTTT MOQGAD      TELAPSE       23.02 TCPU       20.64
 TTTTTTTTTTTTTTTTTTTTTTTTTTTTTT SHELLXN     TELAPSE       24.43 TCPU       22.04
 TTTTTTTTTTTTTTTTTTTTTTTTTTTTTT MONMO3      TELAPSE       24.43 TCPU       22.04
 NUMERICALLY INTEGRATED DENSITY     15.9999801784
 TTTTTTTTTTTTTTTTTTTTTTTTTTTTTT NUMDFT      TELAPSE       24.51 TCPU       22.12
 CYC   8 ETOT(AU) -7.732771027727E+01 DETOT -3.18E-10 tst  2.17E-11 PX  3.48E-06
 TTTTTTTTTTTTTTTTTTTTTTTTTTTTTT DIIS        TELAPSE       24.52 TCPU       22.13
 DIIS TEST: 0.38167E-11 AT SCF   CYCLE   8 - DIIS ACTIVE - HISTORY:     8 CYCLES
 TTTTTTTTTTTTTTTTTTTTTTTTTTTTTT FDIK        TELAPSE       24.52 TCPU       22.13
 INSULATING STATE
 TOP OF VALENCE BANDS -    BAND      8; K   41; EIG -2.3768815E-01 AU
 TOP OF VALENCE BANDS -    BAND      8; K    1; EIG -2.4425833E-01 AU
 BOTTOM OF VIRTUAL BANDS - BAND      9; K    1; EIG -1.3510188E-01 AU
 INDIRECT ENERGY BAND GAP:   2.7915 eV
 TTTTTTTTTTTTTTTTTTTTTTTTTTTTTT PDIG        TELAPSE       24.53 TCPU       22.13
 TTTTTTTTTTTTTTTTTTTTTTTTTTTTTT MOQGAD      TELAPSE       24.53 TCPU       22.13
 TTTTTTTTTTTTTTTTTTTTTTTTTTTTTT SHELLXN     TELAPSE       25.93 TCPU       23.53
 TTTTTTTTTTTTTTTTTTTTTTTTTTTTTT MONMO3      TELAPSE       25.93 TCPU       23.53
 NUMERICALLY INTEGRATED DENSITY     15.9999801784
 TTTTTTTTTTTTTTTTTTTTTTTTTTTTTT NUMDFT      TELAPSE       26.02 TCPU       23.61
 CYC   9 ETOT(AU) -7.732771027715E+01 DETOT  1.15E-10 tst  2.88E-14 PX  2.28E-07
 TTTTTTTTTTTTTTTTTTTTTTTTTTTTTT DIIS        TELAPSE       26.02 TCPU       23.62
 DIIS TEST: 0.34906E-15 AT SCF   CYCLE   9 - DIIS ACTIVE - HISTORY:     9 CYCLES
 TTTTTTTTTTTTTTTTTTTTTTTTTTTTTT FDIK        TELAPSE       26.03 TCPU       23.62
 INSULATING STATE
 TOP OF VALENCE BANDS -    BAND      8; K   41; EIG -2.3768815E-01 AU
 TOP OF VALENCE BANDS -    BAND      8; K    1; EIG -2.4425833E-01 AU
 BOTTOM OF VIRTUAL BANDS - BAND      9; K    1; EIG -1.3510188E-01 AU
 INDIRECT ENERGY BAND GAP:   2.7915 eV
 TTTTTTTTTTTTTTTTTTTTTTTTTTTTTT PDIG        TELAPSE       26.03 TCPU       23.62
 TTTTTTTTTTTTTTTTTTTTTTTTTTTTTT MOQGAD      TELAPSE       26.03 TCPU       23.62
 TTTTTTTTTTTTTTTTTTTTTTTTTTTTTT SHELLXN     TELAPSE       27.43 TCPU       25.02
 TTTTTTTTTTTTTTTTTTTTTTTTTTTTTT MONMO3      TELAPSE       27.44 TCPU       25.02
 NUMERICALLY INTEGRATED DENSITY     15.9999801784
 TTTTTTTTTTTTTTTTTTTTTTTTTTTTTT NUMDFT      TELAPSE       27.52 TCPU       25.11
 CYC  10 ETOT(AU) -7.732771027715E+01 DETOT  7.06E-12 tst  3.81E-16 PX  1.26E-08
 TTTTTTTTTTTTTTTTTTTTTTTTTTTTTT DIIS        TELAPSE       27.52 TCPU       25.11
 DIIS TEST: 0.29439E-16 AT SCF   CYCLE  10 - DIIS ACTIVE - HISTORY:    10 CYCLES
 TTTTTTTTTTTTTTTTTTTTTTTTTTTTTT FDIK        TELAPSE       27.53 TCPU       25.11
 INSULATING STATE
 TOP OF VALENCE BANDS -    BAND      8; K   41; EIG -2.3768815E-01 AU
 TOP OF VALENCE BANDS -    BAND      8; K    1; EIG -2.4425833E-01 AU
 BOTTOM OF VIRTUAL BANDS - BAND      9; K    1; EIG -1.3510188E-01 AU
 INDIRECT ENERGY BAND GAP:   2.7915 eV
 TTTTTTTTTTTTTTTTTTTTTTTTTTTTTT PDIG        TELAPSE       27.53 TCPU       25.11
 TTTTTTTTTTTTTTTTTTTTTTTTTTTTTT MOQGAD      TELAPSE       27.53 TCPU       25.11
 TTTTTTTTTTTTTTTTTTTTTTTTTTTTTT SHELLXN     TELAPSE       28.94 TCPU       26.52
 ::: PSEUDO TOTAL   ENERGY                        -6.7761964818360E+01
 ::: VIRIAL COEFFICIENT                            1.0633117745473E+00
 TTTTTTTTTTTTTTTTTTTTTTTTTTTTTT MONMO3      TELAPSE       28.94 TCPU       26.52
 NUMERICALLY INTEGRATED DENSITY     15.9999801784
 EXCHANGE ENERGY: -0.909576353236E+01  CORRELATION ENERGY: -0.469981926426E+00
 TTTTTTTTTTTTTTTTTTTTTTTTTTTTTT NUMDFT      TELAPSE       29.03 TCPU       26.60
 CYC  11 ETOT(AU) -7.732771027714E+01 DETOT  1.18E-12 tst  6.15E-18 PX  1.26E-08

 == SCF ENDED - CONVERGENCE ON ENERGY      E(AU) -7.7327710277145E+01 CYCLES  11


 ENERGY EXPRESSION=HARTREE+FOCK EXCH*0.25000+(PBE        EXCH)*0.75000+PBE        CORR


 TOTAL ENERGY(DFT)(AU)( 11) -7.7327710277145E+01 DE 1.2E-12 tester 6.2E-18
 TTTTTTTTTTTTTTTTTTTTTTTTTTTTTT EDFT        TELAPSE       29.03 TCPU       26.61

 *******************************************************************************
 *                             FORCE CALCULATION                               *
 *******************************************************************************

 TTTTTTTTTTTTTTTTTTTTTTTTTTTTTT NUMDFG      TELAPSE       29.66 TCPU       27.23
 INFORMATION **** EXCPOG **** EXCH. BIPO BUFFER LENGTH (WORDS) =     1502172
 INFORMATION **** GENPOG **** BIPO BUFFER LENGTH (WORDS) =      453000
 TTTTTTTTTTTTTTTTTTTTTTTTTTTTTT SHELXG      TELAPSE       38.19 TCPU       35.71

 CARTESIAN FORCES IN HARTREE/BOHR (ANALYTICAL)
   ATOM                     X                   Y                   Z
   1   3            -2.020880585149E-16  1.759058751703E-16 -1.712419119072E-16
   2   3             3.293488242260E-16 -7.745731641971E-16  2.537882999816E-17
   3   3             6.150986214172E-16  7.186628866266E-16  3.299297067878E-17
   4   7            -7.372573537513E-16 -1.244141926257E-16  1.082441819610E-16

 RESULTANT FORCE     5.102033377053E-18 -4.418595025823E-18 -4.625929269272E-18

 ATOMIC PART

 THERE ARE NO SYMMETRY ALLOWED DIRECTIONS

 CELL PART

 GRADIENT WITH RESPECT TO THE CELL PARAMETER IN HARTREE/BOHR
ORDER: -D/DA1X, -D/DA1Y, -D/DA1Z
       -D/DA2X, -D/DA2Y, -D/DA2Z
       -D/DA3X, -D/DA3Y, -D/DA3Z
 -0.822900526073E-03  0.215067166755E-15  0.502672921897E-19
 -0.411450263038E-03 -0.712652760369E-03 -0.168467182687E-16
 -0.895582179333E-19 -0.152868558212E-16  0.396889596928E-03

STRESS TENSOR, IN HARTREE/BOHR^3:
ORDER: 11 12 13
       21 22 23
       31 32 33
  0.163216896885E-04  0.203417590805E-16  0.217901633225E-20
 -0.426571553518E-17  0.163216896886E-04  0.371940278311E-18
 -0.997018617206E-21  0.386411372745E-18 -0.965661146196E-05

PRESSURE FROM THE STRESS TENSOR,
IN HARTREE/BOHR^3: -0.76623E-05
PRESSURE IN GIGAPASCAL: -0.2254E+00
CONVERSION FACTOR: 1 HARTREE/BOHR^3= 29421 GIGAPASCAL
WHEN USING VALUES FOR BOHR RADIUS AND HARTREE
FROM IUPAC WEBSITE, APRIL 2009
ENTHALPY: -7.7330015042273E+01

 SYMMETRY ALLOWED FORCES (ANALYTICAL) (DIRECTION, FORCE)

    1 -3.9919703E-03    2 -6.3802124E-03
 TTTTTTTTTTTTTTTTTTTTTTTTTTTTTT TOTGRA      TELAPSE       38.22 TCPU       35.74
 INFORMATION **** optc001 **** GEOMETRY OUTPUT FILE
 CLASSICAL MODEL (SCHLEGEL) USED AS INITIAL HESSIAN MATRIX
 REFERENCE GEOMETRY DEFINED

 MAX GRADIENT      0.006380  THRESHOLD              0.000045 CONVERGED NO
 RMS GRADIENT      0.005322  THRESHOLD              0.000030 CONVERGED NO

 GRADIENT NORM     0.007526  GRADIENT THRESHOLD     0.500000

 EIGENVALUES OF THE ESTIMATED HESSIAN
   6.107       20.00    

 INITIAL TRUST RADIUS    0.5000000000E+00

 PREDICTED ENERGY CHANGE    -0.224E-05

 INITIAL DISPLACEMENTS
 -0.000633 -0.000307
 TTTTTTTTTTTTTTTTTTTTTTTTTTTTTT OPTI        TELAPSE       38.32 TCPU       35.83

 OPTOPTOPTOPTOPTOPTOPTOPTOPTOPTOPTOPTOPTOPTOPTOPTOPTOPTOPTOPTOPTOPTOPTOPTOPTOPT

 - INFORMATION ON SCF MOVED TO SCFOUT.LOG
 GEOMETRY OPTIMIZATION INFORMATION STORED IN OPTINFO.DAT

 OPTOPTOPTOPTOPTOPTOPTOPTOPTOPTOPTOPTOPTOPTOPTOPTOPTOPTOPTOPTOPTOPTOPTOPTOPTOPT
 *******************************************************************************
 CELL OPTIMIZATION - POINT    2
 *******************************************************************************
 LATTICE PARAMETERS (ANGSTROMS AND DEGREES) - BOHR = 0.5291772083 ANGSTROM
 PRIMITIVE CELL - CENTRING CODE 1/0 VOLUME=    44.524332 - DENSITY  1.307 g/cm^3
         A              B              C           ALPHA      BETA       GAMMA 
     3.64372198     3.64372198     3.87236523    90.000000  90.000000 120.000000
 *******************************************************************************
 ATOMS IN THE ASYMMETRIC UNIT    3 - ATOMS IN THE UNIT CELL:    4
     ATOM                 X/A                 Y/B                 Z/C    
 *******************************************************************************
      1 T   3 LI    0.000000000000E+00  0.000000000000E+00  5.000000000000E-01
      2 T   3 LI   -3.333333333333E-01  3.333333333333E-01  0.000000000000E+00
      3 F   3 LI    3.333333333333E-01 -3.333333333333E-01  0.000000000000E+00
      4 T   7 N     0.000000000000E+00  0.000000000000E+00  0.000000000000E+00

 T = ATOM BELONGING TO THE ASYMMETRIC UNIT

 TOTAL ENERGY(DFT)(AU)(  8) -7.7327713913234E+01     DE (AU)   -3.636E-06

 UPDATED TRUST RADIUS     0.500E+00

 SYMMETRY ALLOWED FORCES  (COORDINATE, FORCE)

    1 -2.9145646E-03    2 -5.9068631E-03

 GRADIENT NORM     0.006587  GRADIENT THRESHOLD     0.500000

 EIGENVALUES OF THE ESTIMATED HESSIAN
   1.672       13.47    

 PREDICTED ENERGY CHANGE    -0.875E-05

 MAX GRADIENT      0.005907  THRESHOLD              0.000045 CONVERGED NO
 RMS GRADIENT      0.004658  THRESHOLD              0.000030 CONVERGED NO
 MAX DISPLAC.      0.002670  THRESHOLD              0.000180 CONVERGED NO
 RMS DISPLAC.      0.002218  THRESHOLD              0.000120 CONVERGED NO
 TTTTTTTTTTTTTTTTTTTTTTTTTTTTTT OPTI        TELAPSE       63.07 TCPU       60.41
 *******************************************************************************
 CELL OPTIMIZATION - POINT    3
 *******************************************************************************
 LATTICE PARAMETERS (ANGSTROMS AND DEGREES) - BOHR = 0.5291772083 ANGSTROM
 PRIMITIVE CELL - CENTRING CODE 1/0 VOLUME=    44.318645 - DENSITY  1.313 g/cm^3
         A              B              C           ALPHA      BETA       GAMMA 
     3.63565807     3.63565807     3.87159377    90.000000  90.000000 120.000000
 *******************************************************************************
 ATOMS IN THE ASYMMETRIC UNIT    3 - ATOMS IN THE UNIT CELL:    4
     ATOM                 X/A                 Y/B                 Z/C    
 *******************************************************************************
      1 T   3 LI    0.000000000000E+00  0.000000000000E+00  5.000000000000E-01
      2 T   3 LI   -3.333333333333E-01  3.333333333333E-01  0.000000000000E+00
      3 F   3 LI    3.333333333333E-01 -3.333333333333E-01  0.000000000000E+00
      4 T   7 N     0.000000000000E+00  0.000000000000E+00  0.000000000000E+00

 T = ATOM BELONGING TO THE ASYMMETRIC UNIT

 TOTAL ENERGY(DFT)(AU)(  9) -7.7327721252763E+01     DE (AU)   -7.340E-06

 UPDATED TRUST RADIUS     0.500E+00

 SYMMETRY ALLOWED FORCES  (COORDINATE, FORCE)

    1  1.6714557E-03    2 -3.3489449E-03

 GRADIENT NORM     0.003743  GRADIENT THRESHOLD     0.500000

 EIGENVALUES OF THE ESTIMATED HESSIAN
   1.672       12.67    

 PREDICTED ENERGY CHANGE    -0.586E-06

 MAX GRADIENT      0.003349  THRESHOLD              0.000045 CONVERGED NO
 RMS GRADIENT      0.002647  THRESHOLD              0.000030 CONVERGED NO
 MAX DISPLAC.      0.000363  THRESHOLD              0.000180 CONVERGED NO
 RMS DISPLAC.      0.000257  THRESHOLD              0.000120 CONVERGED NO
 TTTTTTTTTTTTTTTTTTTTTTTTTTTTTT OPTI        TELAPSE       89.31 TCPU       86.45
 *******************************************************************************
 CELL OPTIMIZATION - POINT    4
 *******************************************************************************
 LATTICE PARAMETERS (ANGSTROMS AND DEGREES) - BOHR = 0.5291772083 ANGSTROM
 PRIMITIVE CELL - CENTRING CODE 1/0 VOLUME=    44.316706 - DENSITY  1.313 g/cm^3
         A              B              C           ALPHA      BETA       GAMMA 
     3.63506696     3.63506696     3.87268352    90.000000  90.000000 120.000000
 *******************************************************************************
 ATOMS IN THE ASYMMETRIC UNIT    3 - ATOMS IN THE UNIT CELL:    4
     ATOM                 X/A                 Y/B                 Z/C    
 *******************************************************************************
      1 T   3 LI    0.000000000000E+00  0.000000000000E+00 -5.000000000000E-01
      2 T   3 LI   -3.333333333333E-01  3.333333333333E-01  0.000000000000E+00
      3 F   3 LI    3.333333333333E-01 -3.333333333333E-01  0.000000000000E+00
      4 T   7 N     0.000000000000E+00  0.000000000000E+00  0.000000000000E+00

 T = ATOM BELONGING TO THE ASYMMETRIC UNIT

 TOTAL ENERGY(DFT)(AU)(  8) -7.7327722210218E+01     DE (AU)   -9.575E-07

 UPDATED TRUST RADIUS     0.500E+00

 SYMMETRY ALLOWED FORCES  (COORDINATE, FORCE)

    1  1.7225674E-03    2 -2.7920865E-03

 GRADIENT NORM     0.003281  GRADIENT THRESHOLD     0.500000

 EIGENVALUES OF THE ESTIMATED HESSIAN
   1.537       2.390    

 PREDICTED ENERGY CHANGE    -0.312E-05

 MAX GRADIENT      0.002792  THRESHOLD              0.000045 CONVERGED NO
 RMS GRADIENT      0.002320  THRESHOLD              0.000030 CONVERGED NO
 MAX DISPLAC.      0.001804  THRESHOLD              0.000180 CONVERGED NO
 RMS DISPLAC.      0.001369  THRESHOLD              0.000120 CONVERGED NO
 TTTTTTTTTTTTTTTTTTTTTTTTTTTTTT OPTI        TELAPSE      114.11 TCPU      111.07
 *******************************************************************************
 CELL OPTIMIZATION - POINT    5
 *******************************************************************************
 LATTICE PARAMETERS (ANGSTROMS AND DEGREES) - BOHR = 0.5291772083 ANGSTROM
 PRIMITIVE CELL - CENTRING CODE 1/0 VOLUME=    44.370535 - DENSITY  1.312 g/cm^3
         A              B              C           ALPHA      BETA       GAMMA 
     3.63386249     3.63386249     3.87995832    90.000000  90.000000 120.000000
 *******************************************************************************
 ATOMS IN THE ASYMMETRIC UNIT    3 - ATOMS IN THE UNIT CELL:    4
     ATOM                 X/A                 Y/B                 Z/C    
 *******************************************************************************
      1 T   3 LI    0.000000000000E+00  0.000000000000E+00 -5.000000000000E-01
      2 T   3 LI   -3.333333333333E-01  3.333333333333E-01  0.000000000000E+00
      3 F   3 LI    3.333333333333E-01 -3.333333333333E-01  0.000000000000E+00
      4 T   7 N     0.000000000000E+00  0.000000000000E+00  0.000000000000E+00

 T = ATOM BELONGING TO THE ASYMMETRIC UNIT

 TOTAL ENERGY(DFT)(AU)(  8) -7.7327725491410E+01     DE (AU)   -3.281E-06

 UPDATED TRUST RADIUS     0.500E+00

 SYMMETRY ALLOWED FORCES  (COORDINATE, FORCE)

    1  5.7220330E-04    2 -5.2514009E-05

 GRADIENT NORM     0.000575  GRADIENT THRESHOLD     0.500000

 EIGENVALUES OF THE ESTIMATED HESSIAN
   1.532       2.207    

 PREDICTED ENERGY CHANGE    -0.798E-07

 MAX GRADIENT      0.000572  THRESHOLD              0.000045 CONVERGED NO
 RMS GRADIENT      0.000406  THRESHOLD              0.000030 CONVERGED NO
 MAX DISPLAC.      0.000273  THRESHOLD              0.000180 CONVERGED NO
 RMS DISPLAC.      0.000199  THRESHOLD              0.000120 CONVERGED NO
 TTTTTTTTTTTTTTTTTTTTTTTTTTTTTT OPTI        TELAPSE      139.02 TCPU      135.80
 *******************************************************************************
 CELL OPTIMIZATION - POINT    6
 *******************************************************************************
 LATTICE PARAMETERS (ANGSTROMS AND DEGREES) - BOHR = 0.5291772083 ANGSTROM
 PRIMITIVE CELL - CENTRING CODE 1/0 VOLUME=    44.391517 - DENSITY  1.311 g/cm^3
         A              B              C           ALPHA      BETA       GAMMA 
     3.63433641     3.63433641     3.88078071    90.000000  90.000000 120.000000
 *******************************************************************************
 ATOMS IN THE ASYMMETRIC UNIT    3 - ATOMS IN THE UNIT CELL:    4
     ATOM                 X/A                 Y/B                 Z/C    
 *******************************************************************************
      1 T   3 LI    0.000000000000E+00  0.000000000000E+00 -5.000000000000E-01
      2 T   3 LI   -3.333333333333E-01  3.333333333333E-01  0.000000000000E+00
      3 F   3 LI    3.333333333333E-01 -3.333333333333E-01  0.000000000000E+00
      4 T   7 N     0.000000000000E+00  0.000000000000E+00  0.000000000000E+00

 T = ATOM BELONGING TO THE ASYMMETRIC UNIT

 TOTAL ENERGY(DFT)(AU)(  8) -7.7327725722351E+01     DE (AU)   -2.309E-07

 UPDATED TRUST RADIUS     0.500E+00

 SYMMETRY ALLOWED FORCES  (COORDINATE, FORCE)

    1  1.0779425E-04    2  4.0734256E-05

 GRADIENT NORM     0.000115  GRADIENT THRESHOLD     0.500000

 EIGENVALUES OF THE ESTIMATED HESSIAN
   1.610       1.749    

 PREDICTED ENERGY CHANGE    -0.380E-08

 MAX GRADIENT      0.000108  THRESHOLD              0.000045 CONVERGED NO
 RMS GRADIENT      0.000081  THRESHOLD              0.000030 CONVERGED NO
 MAX DISPLAC.      0.000062  THRESHOLD              0.000180 CONVERGED YES
 RMS DISPLAC.      0.000047  THRESHOLD              0.000120 CONVERGED YES
 TTTTTTTTTTTTTTTTTTTTTTTTTTTTTT OPTI        TELAPSE      163.87 TCPU      160.47
 *******************************************************************************
 CELL OPTIMIZATION - POINT    7
 *******************************************************************************
 LATTICE PARAMETERS (ANGSTROMS AND DEGREES) - BOHR = 0.5291772083 ANGSTROM
 PRIMITIVE CELL - CENTRING CODE 1/0 VOLUME=    44.396288 - DENSITY  1.311 g/cm^3
         A              B              C           ALPHA      BETA       GAMMA 
     3.63450009     3.63450009     3.88084824    90.000000  90.000000 120.000000
 *******************************************************************************
 ATOMS IN THE ASYMMETRIC UNIT    3 - ATOMS IN THE UNIT CELL:    4
     ATOM                 X/A                 Y/B                 Z/C    
 *******************************************************************************
      1 T   3 LI    0.000000000000E+00  0.000000000000E+00 -5.000000000000E-01
      2 T   3 LI   -3.333333333333E-01  3.333333333333E-01  0.000000000000E+00
      3 F   3 LI    3.333333333333E-01 -3.333333333333E-01  0.000000000000E+00
      4 T   7 N     0.000000000000E+00  0.000000000000E+00  0.000000000000E+00

 T = ATOM BELONGING TO THE ASYMMETRIC UNIT

 TOTAL ENERGY(DFT)(AU)(  8) -7.7327725767650E+01     DE (AU)   -4.530E-08

 UPDATED TRUST RADIUS     0.500E+00

 SYMMETRY ALLOWED FORCES  (COORDINATE, FORCE)

    1  1.0699479E-06    2  4.5110344E-06

 GRADIENT NORM     0.000005  GRADIENT THRESHOLD     0.500000

 EIGENVALUES OF THE ESTIMATED HESSIAN
   1.601       1.719    

 PREDICTED ENERGY CHANGE    -0.668E-11

 MAX GRADIENT      0.000005  THRESHOLD              0.000045 CONVERGED YES
 RMS GRADIENT      0.000003  THRESHOLD              0.000030 CONVERGED YES
 MAX DISPLAC.      0.000003  THRESHOLD              0.000180 CONVERGED YES
 RMS DISPLAC.      0.000002  THRESHOLD              0.000120 CONVERGED YES

 CONVERGENCE TESTS SATISFIED AFTER   7 ENERGY AND GRADIENT CALCULATIONS
 +++++++++++++++++++++++++++++++++++++++++++++++++++++++++++++++++++++++++++++++
 FINALRUN OPTION: RE-STARTING OPTIMIZATION
 +++++++++++++++++++++++++++++++++++++++++++++++++++++++++++++++++++++++++++++++
 TTTTTTTTTTTTTTTTTTTTTTTTTTTTTT OPTI        TELAPSE      188.64 TCPU      185.08
 *******************************************************************************
 CELL OPTIMIZATION - POINT    8
 *******************************************************************************
 LATTICE PARAMETERS (ANGSTROMS AND DEGREES) - BOHR = 0.5291772083 ANGSTROM
 PRIMITIVE CELL - CENTRING CODE 1/0 VOLUME=    44.396336 - DENSITY  1.311 g/cm^3
         A              B              C           ALPHA      BETA       GAMMA 
     3.63450557     3.63450557     3.88084071    90.000000  90.000000 120.000000
 *******************************************************************************
 ATOMS IN THE ASYMMETRIC UNIT    3 - ATOMS IN THE UNIT CELL:    4
     ATOM                 X/A                 Y/B                 Z/C    
 *******************************************************************************
      1 T   3 LI    0.000000000000E+00  0.000000000000E+00  5.000000000000E-01
      2 T   3 LI   -3.333333333333E-01  3.333333333333E-01  0.000000000000E+00
      3 F   3 LI    3.333333333333E-01 -3.333333333333E-01  0.000000000000E+00
      4 T   7 N     0.000000000000E+00  0.000000000000E+00  0.000000000000E+00

 T = ATOM BELONGING TO THE ASYMMETRIC UNIT

 REFERENCE GEOMETRY WILL BE CHANGED

 TOTAL ENERGY(DFT)(AU)(  8) -7.7327728223555E+01     DE (AU)   -2.456E-06

 SYMMETRY ALLOWED FORCES  (COORDINATE, FORCE)

    1 -8.1075836E-05    2  1.5204918E-04

 GRADIENT NORM     0.000172  GRADIENT THRESHOLD     0.500000

 HESSIAN UPDATE SKIPPED

 EIGENVALUES OF THE ESTIMATED HESSIAN
   1.601       1.719    

 PREDICTED ENERGY CHANGE    -0.914E-08

 MAX GRADIENT      0.000152  THRESHOLD              0.000045 CONVERGED NO
 RMS GRADIENT      0.000122  THRESHOLD              0.000030 CONVERGED NO
 MAX DISPLAC.      0.000095  THRESHOLD              0.000180 CONVERGED YES
 RMS DISPLAC.      0.000075  THRESHOLD              0.000120 CONVERGED YES
 TTTTTTTTTTTTTTTTTTTTTTTTTTTTTT OPTI        TELAPSE      218.09 TCPU      214.34
 *******************************************************************************
 CELL OPTIMIZATION - POINT    9
 *******************************************************************************
 LATTICE PARAMETERS (ANGSTROMS AND DEGREES) - BOHR = 0.5291772083 ANGSTROM
 PRIMITIVE CELL - CENTRING CODE 1/0 VOLUME=    44.392703 - DENSITY  1.311 g/cm^3
         A              B              C           ALPHA      BETA       GAMMA 
     3.63454741     3.63454741     3.88043382    90.000000  90.000000 120.000000
 *******************************************************************************
 ATOMS IN THE ASYMMETRIC UNIT    3 - ATOMS IN THE UNIT CELL:    4
     ATOM                 X/A                 Y/B                 Z/C    
 *******************************************************************************
      1 T   3 LI    0.000000000000E+00  0.000000000000E+00 -5.000000000000E-01
      2 T   3 LI   -3.333333333333E-01  3.333333333333E-01  0.000000000000E+00
      3 F   3 LI    3.333333333333E-01 -3.333333333333E-01  0.000000000000E+00
      4 T   7 N     0.000000000000E+00  0.000000000000E+00  0.000000000000E+00

 T = ATOM BELONGING TO THE ASYMMETRIC UNIT

 TOTAL ENERGY(DFT)(AU)(  7) -7.7327728218309E+01     DE (AU)    5.246E-09

 UPDATED TRUST RADIUS     0.265E-04

 SYMMETRY ALLOWED FORCES  (COORDINATE, FORCE)

    1 -3.4570449E-06    2  8.9521237E-06

 GRADIENT NORM     0.000010  GRADIENT THRESHOLD     0.500000

 EIGENVALUES OF THE ESTIMATED HESSIAN
   1.517       1.714    

 PREDICTED ENERGY CHANGE    -0.302E-10

 MAX GRADIENT      0.000009  THRESHOLD              0.000045 CONVERGED YES
 RMS GRADIENT      0.000007  THRESHOLD              0.000030 CONVERGED YES

 WARNINGWARNINGWARNINGWARNINGWARNINGWARNINGWARNINGWARNINGWARNINGWARNINGWARNING

 CONVERGENCE ON GRADIENT - NO CHANGE IN ENERGY FOR   2 STEPS

 CONVERGENCE TESTS SATISFIED AFTER   9 ENERGY AND GRADIENT CALCULATIONS

 WARNINGWARNINGWARNINGWARNINGWARNINGWARNINGWARNINGWARNINGWARNINGWARNINGWARNING

 +++++++++++++++++++++++++++++++++++++++++++++++++++++++++++++++++++++++++++++++
 FINALRUN OPTION: RE-STARTING OPTIMIZATION
 +++++++++++++++++++++++++++++++++++++++++++++++++++++++++++++++++++++++++++++++
 TTTTTTTTTTTTTTTTTTTTTTTTTTTTTT OPTI        TELAPSE      246.06 TCPU      242.11
 *******************************************************************************
 CELL OPTIMIZATION - POINT   10
 *******************************************************************************
 LATTICE PARAMETERS (ANGSTROMS AND DEGREES) - BOHR = 0.5291772083 ANGSTROM
 PRIMITIVE CELL - CENTRING CODE 1/0 VOLUME=    44.392539 - DENSITY  1.311 g/cm^3
         A              B              C           ALPHA      BETA       GAMMA 
     3.63455172     3.63455172     3.88041025    90.000000  90.000000 120.000000
 *******************************************************************************
 ATOMS IN THE ASYMMETRIC UNIT    3 - ATOMS IN THE UNIT CELL:    4
     ATOM                 X/A                 Y/B                 Z/C    
 *******************************************************************************
      1 T   3 LI    0.000000000000E+00  0.000000000000E+00  5.000000000000E-01
      2 T   3 LI   -3.333333333333E-01  3.333333333333E-01  0.000000000000E+00
      3 F   3 LI    3.333333333333E-01 -3.333333333333E-01  0.000000000000E+00
      4 T   7 N     0.000000000000E+00  0.000000000000E+00  0.000000000000E+00

 T = ATOM BELONGING TO THE ASYMMETRIC UNIT

 REFERENCE GEOMETRY WILL BE CHANGED

 TOTAL ENERGY(DFT)(AU)(  5) -7.7327728200052E+01     DE (AU)    1.826E-08

 SYMMETRY ALLOWED FORCES  (COORDINATE, FORCE)

    1 -3.0381051E-07    2 -2.4790387E-07

 GRADIENT NORM     0.000000  GRADIENT THRESHOLD     0.500000

 HESSIAN UPDATE SKIPPED

 EIGENVALUES OF THE ESTIMATED HESSIAN
   1.517       1.714    

 PREDICTED ENERGY CHANGE    -0.463E-13

 MAX GRADIENT      0.000000  THRESHOLD              0.000045 CONVERGED YES
 RMS GRADIENT      0.000000  THRESHOLD              0.000030 CONVERGED YES
 MAX DISPLAC.      0.000000  THRESHOLD              0.000180 CONVERGED YES
 RMS DISPLAC.      0.000000  THRESHOLD              0.000120 CONVERGED YES

 CONVERGENCE TESTS SATISFIED AFTER  10 ENERGY AND GRADIENT CALCULATIONS

 ******************************************************************
 * OPT END - CONVERGED * E(AU):  -7.732772820005E+01  POINTS   10 *
 ******************************************************************

   BAND GAP:                      2.7871  eV 

 EIGENVECTORS IN FORTRAN UNIT  8

 NEIGHBORS OF THE NON-EQUIVALENT ATOMS

 N = NUMBER OF NEIGHBORS AT DISTANCE R
    ATOM  N     R/ANG      R/AU   NEIGHBORS (ATOM LABELS AND CELL INDICES)
   1 LI   2     1.9402     3.6665    4 N    0 0 0    4 N    0 0 1
   1 LI  12     2.8579     5.4007    2 LI   0 0 0    2 LI   1 1 0    2 LI   0 1 0
                                     2 LI   0 0 1    2 LI   1 1 1    2 LI   0 1 1
                                     3 LI   1 1 0    3 LI   0 0 0    3 LI   1 0 0
                                     3 LI   1 1 1    3 LI   0 0 1    3 LI   1 0 1
   1 LI   6     3.6346     6.8683    1 LI  -1-1 0    1 LI   1 1 0    1 LI  -1 0 0
                                     1 LI   1 0 0    1 LI   0-1 0    1 LI   0 1 0
   1 LI   2     3.8804     7.3329    1 LI   0 0-1    1 LI   0 0 1
   1 LI  12     4.1200     7.7857    4 N    1 1 0    4 N   -1-1 0    4 N    1 0 0
                                     4 N   -1 0 0    4 N    0 1 0    4 N    0-1 0
                                     4 N    1 1 1    4 N   -1-1 1    4 N    1 0 1
                                     4 N   -1 0 1    4 N    0 1 1    4 N    0-1 1
   1 LI  12     4.6236     8.7373    2 LI   1 0 0    2 LI  -1 0 0    2 LI   1 0 1
                                     2 LI  -1 0 1    2 LI   1 2 0    2 LI   1 2 1
                                     3 LI   0 1 0    3 LI   2 1 0    3 LI   0 1 1
                                     3 LI   2 1 1    3 LI   0-1 0    3 LI   0-1 1

   2 LI   3     2.0984     3.9654    3 LI   0 0 0    3 LI   1 0 0    3 LI   0-1 0
   2 LI   3     2.0984     3.9654    4 N    0 0 0    4 N   -1-1 0    4 N    0-1 0
   2 LI   6     2.8579     5.4007    1 LI   0 0 0    1 LI  -1-1 0    1 LI   0-1 0
                                     1 LI   0 0-1    1 LI  -1-1-1    1 LI   0-1-1
   2 LI   6     3.6346     6.8683    2 LI  -1-1 0    2 LI   1 1 0    2 LI  -1 0 0
                                     2 LI   1 0 0    2 LI   0-1 0    2 LI   0 1 0
   2 LI   2     3.8804     7.3329    2 LI   0 0-1    2 LI   0 0 1
   2 LI   3     4.1968     7.9308    3 LI   1 1 0    3 LI  -1-1 0    3 LI   1-1 0

   4 N    2     1.9402     3.6665    1 LI   0 0 0    1 LI   0 0-1
   4 N    6     2.0984     3.9654    2 LI   0 0 0    2 LI   1 1 0    2 LI   0 1 0
                                     3 LI   1 1 0    3 LI   0 0 0    3 LI   1 0 0
   4 N    6     3.6346     6.8683    4 N   -1-1 0    4 N    1 1 0    4 N   -1 0 0
                                     4 N    1 0 0    4 N    0-1 0    4 N    0 1 0
   4 N    2     3.8804     7.3329    4 N    0 0-1    4 N    0 0 1
   4 N   12     4.1200     7.7857    1 LI  -1-1 0    1 LI   1 1 0    1 LI  -1 0 0
                                     1 LI   1 0 0    1 LI   0-1 0    1 LI   0 1 0
                                     1 LI  -1-1-1    1 LI   1 1-1    1 LI  -1 0-1
                                     1 LI   1 0-1    1 LI   0-1-1    1 LI   0 1-1
   4 N    6     4.1968     7.9308    2 LI  -1 0 0    2 LI   1 0 0    2 LI   1 2 0
                                     3 LI   2 1 0    3 LI   0 1 0    3 LI   0-1 0


 FINAL OPTIMIZED GEOMETRY - DIMENSIONALITY OF THE SYSTEM      3
 (NON PERIODIC DIRECTION: LATTICE PARAMETER FORMALLY SET TO 500)
 *******************************************************************************
 LATTICE PARAMETERS (ANGSTROMS AND DEGREES) - BOHR = 0.5291772083 ANGSTROM
 PRIMITIVE CELL - CENTRING CODE 1/0 VOLUME=    44.392539 - DENSITY  1.311 g/cm^3
         A              B              C           ALPHA      BETA       GAMMA 
     3.63455172     3.63455172     3.88041025    90.000000  90.000000 120.000000
 *******************************************************************************
 ATOMS IN THE ASYMMETRIC UNIT    3 - ATOMS IN THE UNIT CELL:    4
     ATOM                 X/A                 Y/B                 Z/C    
 *******************************************************************************
      1 T   3 LI    0.000000000000E+00  0.000000000000E+00  5.000000000000E-01
      2 T   3 LI   -3.333333333333E-01  3.333333333333E-01  0.000000000000E+00
      3 F   3 LI    3.333333333333E-01 -3.333333333333E-01  0.000000000000E+00
      4 T   7 N     0.000000000000E+00  0.000000000000E+00  0.000000000000E+00

 T = ATOM BELONGING TO THE ASYMMETRIC UNIT
 INFORMATION **** fort.34 **** GEOMETRY OUTPUT FILE

 DIRECT LATTICE VECTORS CARTESIAN COMPONENTS (ANGSTROM)
          X                    Y                    Z
   0.314761411819E+01  -0.181727585844E+01   0.000000000000E+00
  -0.117120022467E-17   0.363455171688E+01   0.000000000000E+00
   0.000000000000E+00   0.000000000000E+00   0.388041025401E+01


 CARTESIAN COORDINATES - PRIMITIVE CELL
 *******************************************************************************
 *      ATOM          X(ANGSTROM)         Y(ANGSTROM)         Z(ANGSTROM)
 *******************************************************************************
    1     3 LI    0.000000000000E+00  0.000000000000E+00  1.940205127006E+00
    2     3 LI   -1.049204706063E+00 -1.817275858441E+00  0.000000000000E+00
    3     3 LI   -2.098409412125E+00 -3.030500602445E-16  0.000000000000E+00
    4     7 N     0.000000000000E+00  0.000000000000E+00  0.000000000000E+00

 DFT PARAMETERS

     ATOM       ELECTRONS   NET CHARGE   R(ANGSTROM)
   1   3  LI      3.0000      0.0000     1.57000000
   4   7  N       7.0000      0.0000     0.74000000

 SIZE OF GRID=      13602
 TTTTTTTTTTTTTTTTTTTTTTTTTTTTTT MAKE_GRID2  TELAPSE      275.49 TCPU      271.36
 BECKE WEIGHT FUNCTION
 RADSAFE =     2.00
 TOLERANCES - DENSITY:10**- 6; POTENTIAL:10**- 9; GRID WGT:10**-14

 RADIAL INTEGRATION  - INTERVALS (POINTS,UPPER LIMIT):            1( 99,  4.0*R)

 ANGULAR INTEGRATION - INTERVALS (ACCURACY LEVEL [N. POINTS] UPPER LIMIT):
  1(  6[ 146]   0.2)  2( 11[ 302]   0.5)  3( 14[ 590]   0.9)  4( 18[1454]   3.5)
  5( 14[ 590]9999.0)
 EEEEEEEEEE INT_CALC TERMINATION  DATE 25 07 2023 TIME 17:21:23.6

 *******************************************************************************
 ICSD_CollCode156894.cif                                                         
 CRYSTAL - SCF - TYPE OF CALCULATION :  RESTRICTED CLOSED SHELL
 *******************************************************************************

 CAPPA:IS1  8;IS2  8;IS3  8; K PTS MONK NET  50; SYMMOPS:K SPACE  24;G SPACE  24

 TTTTTTTTTTTTTTTTTTTTTTTTTTTTTT SDIK        TELAPSE      275.52 TCPU      271.39

 INFORMATION FROM INTEGRAL EVALUATION

 RESTART FROM A PREVIOUS DENSITY MATRIX - DEP ACTIVE
 NUMBER OF COUPLE SETS (NEW, OLD, FOUND):     183     183     183
 NUMBER OF IRREDUCIBLE G VECTORS        :    3188    3188    3188
 TTTTTTTTTTTTTTTTTTTTTTTTTTTTTT MOQGAD      TELAPSE      275.53 TCPU      271.39
 TTTTTTTTTTTTTTTTTTTTTTTTTTTTTT SHELLXN     TELAPSE      276.94 TCPU      272.80
 TTTTTTTTTTTTTTTTTTTTTTTTTTTTTT MONMO3      TELAPSE      276.94 TCPU      272.80
 NUMERICALLY INTEGRATED DENSITY     15.9999718173
 TTTTTTTTTTTTTTTTTTTTTTTTTTTTTT NUMDFT      TELAPSE      277.02 TCPU      272.88
 CYC   0 ETOT(AU) -7.732772820005E+01 DETOT -7.73E+01 tst  2.68E-16 PX  1.00E+00
 TTTTTTTTTTTTTTTTTTTTTTTTTTTTTT DIIS        TELAPSE      277.03 TCPU      272.88
 TTTTTTTTTTTTTTTTTTTTTTTTTTTTTT FDIK        TELAPSE      277.03 TCPU      272.89
 INSULATING STATE
 TOP OF VALENCE BANDS -    BAND      8; K   41; EIG -2.3781281E-01 AU
 TOP OF VALENCE BANDS -    BAND      8; K    1; EIG -2.4417761E-01 AU
 BOTTOM OF VIRTUAL BANDS - BAND      9; K    1; EIG -1.3538747E-01 AU
 INDIRECT ENERGY BAND GAP:   2.7871 eV
 TTTTTTTTTTTTTTTTTTTTTTTTTTTTTT PDIG        TELAPSE      277.04 TCPU      272.89
 TTTTTTTTTTTTTTTTTTTTTTTTTTTTTT MOQGAD      TELAPSE      277.04 TCPU      272.89
 TTTTTTTTTTTTTTTTTTTTTTTTTTTTTT SHELLXN     TELAPSE      278.45 TCPU      274.30
 TTTTTTTTTTTTTTTTTTTTTTTTTTTTTT MONMO3      TELAPSE      278.45 TCPU      274.30
 NUMERICALLY INTEGRATED DENSITY     15.9999718173
 TTTTTTTTTTTTTTTTTTTTTTTTTTTTTT NUMDFT      TELAPSE      278.54 TCPU      274.39
 CYC   1 ETOT(AU) -7.732772820005E+01 DETOT  3.84E-13 tst  0.00E+00 PX  1.05E-09
 TTTTTTTTTTTTTTTTTTTTTTTTTTTTTT DIIS        TELAPSE      278.54 TCPU      274.39
 DIIS TEST: 0.10414E-18 AT SCF   CYCLE   1 - MIX   30 %
 TTTTTTTTTTTTTTTTTTTTTTTTTTTTTT FDIK        TELAPSE      278.55 TCPU      274.39
 INSULATING STATE
 TOP OF VALENCE BANDS -    BAND      8; K   41; EIG -2.3781281E-01 AU
 TOP OF VALENCE BANDS -    BAND      8; K    1; EIG -2.4417761E-01 AU
 BOTTOM OF VIRTUAL BANDS - BAND      9; K    1; EIG -1.3538747E-01 AU
 INDIRECT ENERGY BAND GAP:   2.7871 eV
 TTTTTTTTTTTTTTTTTTTTTTTTTTTTTT PDIG        TELAPSE      278.55 TCPU      274.40
 TTTTTTTTTTTTTTTTTTTTTTTTTTTTTT MOQGAD      TELAPSE      278.56 TCPU      274.40
 TTTTTTTTTTTTTTTTTTTTTTTTTTTTTT SHELLXN     TELAPSE      279.97 TCPU      275.81
 ::: PSEUDO TOTAL   ENERGY                        -6.7760250708412E+01
 ::: VIRIAL COEFFICIENT                            1.0633677154275E+00
 TTTTTTTTTTTTTTTTTTTTTTTTTTTTTT MONMO3      TELAPSE      279.97 TCPU      275.81
 NUMERICALLY INTEGRATED DENSITY     15.9999718173
 EXCHANGE ENERGY: -0.909725199257E+01  CORRELATION ENERGY: -0.470225499069E+00
 TTTTTTTTTTTTTTTTTTTTTTTTTTTTTT NUMDFT      TELAPSE      280.06 TCPU      275.90
 CYC   2 ETOT(AU) -7.732772820005E+01 DETOT -1.14E-13 tst  2.32E-20 PX  1.05E-09

 == SCF ENDED - CONVERGENCE ON ENERGY      E(AU) -7.7327728200052E+01 CYCLES   2


 ENERGY EXPRESSION=HARTREE+FOCK EXCH*0.25000+(PBE        EXCH)*0.75000+PBE        CORR


 TOTAL ENERGY(DFT)(AU)(  2) -7.7327728200052E+01 DE-1.1E-13 tester 2.3E-20
 TTTTTTTTTTTTTTTTTTTTTTTTTTTTTT EDFT        TELAPSE      280.06 TCPU      275.90
 INSULATING STATE
 TOP OF VALENCE BANDS -    BAND      8; K   41; EIG -2.3781281E-01 AU
 TOP OF VALENCE BANDS -    BAND      8; K    1; EIG -2.4417761E-01 AU
 BOTTOM OF VIRTUAL BANDS - BAND      9; K    1; EIG -1.3538747E-01 AU
 INDIRECT ENERGY BAND GAP:   2.7871 eV
 EIGENVECTORS IN FORTRAN UNIT  8
 EEEEEEEEEE SCF TERMINATION  DATE 25 07 2023 TIME 17:21:28.3

     *********************************************************************
     * ***************************************************************** *
     * *        COUPLED-PERTURBED KOHN-SHAM CALCULATION (CPKS)         * *
     * *        REFERENCES TO BE QUOTED WHEN USING THIS MODULE:        * *
     * *        (1) M. Ferrero, M. Rerat, R. Orlando, R.Dovesi,        * *
     * *            J. Comput. Chem. 29 (2008), 1450;                  * *
     * *            J. Chem. Phys. 128 (2008), 014110.                 * *
     * *        (2) M. Ferrero, M. Rerat, B. Kirtman, R. Dovesi,       * *
     * *            J. Chem. Phys. 129 (2008), 244110.                 * *
     * ***************************************************************** *
     *********************************************************************

 INFORMATION **** CP_DRIVER **** CONVERGENCE ON ALPHA: 10**          -3
 INFORMATION **** CP_DRIVER **** MAX NUMBER OF CPHF/CPKS CYCLES         200
 INFORMATION **** CP_DRIVER **** CPHF/CPKS DAMPING PERCENTAGE:          60
 STATIC FIELD (OR H*NU < 1E-15 HA)

 *******************************************************************************

 ELECTRIC FIELD APPLIED ALONG CARTESIAN DIRECTION X

 *******************************************************************************
 THE NUMBER OF SYMMETRY OPERATORS HAS BEEN REDUCED FROM 24 TO  1

 NEW GRID IN RECIPROCAL SPACE
 *******************************************************************************
 POINTS IN THE IBZ                 260 SHRINKING FACTORS               8  8  8
 *******************************************************************************
 *** K POINTS COORDINATES (OBLIQUE COORDINATES IN UNITS OF SHRINK FAC. )
   1-R(  0  0  0)   2-C(  1  0  0)   3-C(  7  1  0)   4-C(  0  7  0)
   5-C(  2  0  0)   6-C(  6  2  0)   7-C(  0  6  0)   8-C(  3  0  0)
   9-C(  5  3  0)  10-C(  0  5  0)  11-R(  4  0  0)  12-R(  4  4  0)
  13-R(  0  4  0)  14-C(  1  1  0)  15-C(  6  1  0)  16-C(  1  6  0)
  17-C(  2  1  0)  18-C(  5  2  0)  19-C(  1  5  0)  20-C(  2  5  0)
  21-C(  5  1  0)  22-C(  1  2  0)  23-C(  3  1  0)  24-C(  4  3  0)
  25-C(  1  4  0)  26-C(  3  4  0)  27-C(  4  1  0)  28-C(  1  3  0)
  29-C(  2  2  0)  30-C(  4  2  0)  31-C(  2  4  0)  32-C(  3  2  0)
  33-C(  3  3  0)  34-C(  2  3  0)  35-C(  0  0  1)  36-C(  1  0  1)
  37-C(  7  0  1)  38-C(  7  1  1)  39-C(  0  7  1)  40-C(  0  1  1)
  41-C(  1  7  1)  42-C(  2  0  1)  43-C(  6  0  1)  44-C(  6  2  1)
  45-C(  0  6  1)  46-C(  0  2  1)  47-C(  2  6  1)  48-C(  3  0  1)
  49-C(  5  0  1)  50-C(  5  3  1)  51-C(  0  5  1)  52-C(  0  3  1)
  53-C(  3  5  1)  54-C(  4  0  1)  55-C(  4  4  1)  56-C(  0  4  1)
  57-C(  1  1  1)  58-C(  7  7  1)  59-C(  6  1  1)  60-C(  1  6  1)
  61-C(  7  2  1)  62-C(  2  7  1)  63-C(  2  1  1)  64-C(  6  7  1)
  65-C(  5  2  1)  66-C(  1  5  1)  67-C(  7  3  1)  68-C(  3  6  1)
  69-C(  2  5  7)  70-C(  5  1  7)  71-C(  1  2  7)  72-C(  7  6  7)
  73-C(  3  7  7)  74-C(  6  3  7)  75-C(  3  1  1)  76-C(  5  7  1)
  77-C(  4  3  1)  78-C(  1  4  1)  79-C(  7  4  1)  80-C(  4  5  1)
  81-C(  3  4  7)  82-C(  4  1  7)  83-C(  1  3  7)  84-C(  7  5  7)
  85-C(  4  7  7)  86-C(  5  4  7)  87-C(  2  2  1)  88-C(  6  6  1)
  89-C(  4  2  1)  90-C(  2  4  1)  91-C(  6  4  1)  92-C(  4  6  1)
  93-C(  3  2  1)  94-C(  5  6  1)  95-C(  3  3  1)  96-C(  2  3  1)
  97-C(  6  5  1)  98-C(  5  5  1)  99-C(  0  0  2) 100-C(  1  0  2)
 101-C(  7  0  2) 102-C(  7  1  2) 103-C(  0  7  2) 104-C(  0  1  2)
 105-C(  1  7  2) 106-C(  2  0  2) 107-C(  6  0  2) 108-C(  6  2  2)
 109-C(  0  6  2) 110-C(  0  2  2) 111-C(  2  6  2) 112-C(  3  0  2)
 113-C(  5  0  2) 114-C(  5  3  2) 115-C(  0  5  2) 116-C(  0  3  2)
 117-C(  3  5  2) 118-C(  4  0  2) 119-C(  4  4  2) 120-C(  0  4  2)
 121-C(  1  1  2) 122-C(  7  7  2) 123-C(  6  1  2) 124-C(  1  6  2)
 125-C(  7  2  2) 126-C(  2  7  2) 127-C(  2  1  2) 128-C(  6  7  2)
 129-C(  5  2  2) 130-C(  1  5  2) 131-C(  7  3  2) 132-C(  3  6  2)
 133-C(  2  5  6) 134-C(  5  1  6) 135-C(  1  2  6) 136-C(  7  6  6)
 137-C(  3  7  6) 138-C(  6  3  6) 139-C(  3  1  2) 140-C(  5  7  2)
 141-C(  4  3  2) 142-C(  1  4  2) 143-C(  7  4  2) 144-C(  4  5  2)
 145-C(  3  4  6) 146-C(  4  1  6) 147-C(  1  3  6) 148-C(  7  5  6)
 149-C(  4  7  6) 150-C(  5  4  6) 151-C(  2  2  2) 152-C(  6  6  2)
 153-C(  4  2  2) 154-C(  2  4  2) 155-C(  6  4  2) 156-C(  4  6  2)
 157-C(  3  2  2) 158-C(  5  6  2) 159-C(  3  3  2) 160-C(  2  3  2)
 161-C(  6  5  2) 162-C(  5  5  2) 163-C(  0  0  3) 164-C(  1  0  3)
 165-C(  7  0  3) 166-C(  7  1  3) 167-C(  0  7  3) 168-C(  0  1  3)
 169-C(  1  7  3) 170-C(  2  0  3) 171-C(  6  0  3) 172-C(  6  2  3)
 173-C(  0  6  3) 174-C(  0  2  3) 175-C(  2  6  3) 176-C(  3  0  3)
 177-C(  5  0  3) 178-C(  5  3  3) 179-C(  0  5  3) 180-C(  0  3  3)
 181-C(  3  5  3) 182-C(  4  0  3) 183-C(  4  4  3) 184-C(  0  4  3)
 185-C(  1  1  3) 186-C(  7  7  3) 187-C(  6  1  3) 188-C(  1  6  3)
 189-C(  7  2  3) 190-C(  2  7  3) 191-C(  2  1  3) 192-C(  6  7  3)
 193-C(  5  2  3) 194-C(  1  5  3) 195-C(  7  3  3) 196-C(  3  6  3)
 197-C(  2  5  5) 198-C(  5  1  5) 199-C(  1  2  5) 200-C(  7  6  5)
 201-C(  3  7  5) 202-C(  6  3  5) 203-C(  3  1  3) 204-C(  5  7  3)
 205-C(  4  3  3) 206-C(  1  4  3) 207-C(  7  4  3) 208-C(  4  5  3)
 209-C(  3  4  5) 210-C(  4  1  5) 211-C(  1  3  5) 212-C(  7  5  5)
 213-C(  4  7  5) 214-C(  5  4  5) 215-C(  2  2  3) 216-C(  6  6  3)
 217-C(  4  2  3) 218-C(  2  4  3) 219-C(  6  4  3) 220-C(  4  6  3)
 221-C(  3  2  3) 222-C(  5  6  3) 223-C(  3  3  3) 224-C(  2  3  3)
 225-C(  6  5  3) 226-C(  5  5  3) 227-R(  0  0  4) 228-C(  1  0  4)
 229-C(  7  1  4) 230-C(  0  7  4) 231-C(  2  0  4) 232-C(  6  2  4)
 233-C(  0  6  4) 234-C(  3  0  4) 235-C(  5  3  4) 236-C(  0  5  4)
 237-R(  4  0  4) 238-R(  4  4  4) 239-R(  0  4  4) 240-C(  1  1  4)
 241-C(  6  1  4) 242-C(  1  6  4) 243-C(  2  1  4) 244-C(  5  2  4)
 245-C(  1  5  4) 246-C(  2  5  4) 247-C(  5  1  4) 248-C(  1  2  4)
 249-C(  3  1  4) 250-C(  4  3  4) 251-C(  1  4  4) 252-C(  3  4  4)
 253-C(  4  1  4) 254-C(  1  3  4) 255-C(  2  2  4) 256-C(  4  2  4)
 257-C(  2  4  4) 258-C(  3  2  4) 259-C(  3  3  4) 260-C(  2  3  4)

 GCALCO - MAX INDICES DIRECT LATTICE VECTOR    15    15    12
 NO.OF VECTORS CREATED 6999 STARS  382 RMAX    79.49198 BOHR
 TTTTTTTTTTTTTTTTTTTTTTTTTTTTTT gordsh1     TELAPSE      280.18 TCPU      275.99

 MATRIX SIZE: P(G)  294645, F(G)   24622, P(G) IRR  158293, F(G) IRR   25750
 MAX G-VECTOR INDEX FOR 1- AND 2-ELECTRON INTEGRALS 833

 TTTTTTTTTTTTTTTTTTTTTTTTTTTTTT INPUT       TELAPSE      280.19 TCPU      276.00
 TTTTTTTTTTTTTTTTTTTTTTTTTTTTTT SYMM        TELAPSE      280.19 TCPU      276.00

 ***** NEW REFERENCE GEOMETRY *****
 TTTTTTTTTTTTTTTTTTTTTTTTTTTTTT INT_SCREEN  TELAPSE      280.19 TCPU      276.00

 DFT PARAMETERS

     ATOM       ELECTRONS   NET CHARGE   R(ANGSTROM)
   1   3  LI      3.0000      0.0000     1.57000000
   4   7  N       7.0000      0.0000     0.74000000

 SIZE OF GRID=     136040
 TTTTTTTTTTTTTTTTTTTTTTTTTTTTTT MAKE_GRID2  TELAPSE      293.04 TCPU      288.79
 BECKE WEIGHT FUNCTION
 RADSAFE =     2.00
 TOLERANCES - DENSITY:10**- 6; POTENTIAL:10**- 9; GRID WGT:10**-14

 RADIAL INTEGRATION  - INTERVALS (POINTS,UPPER LIMIT):            1( 99,  4.0*R)

 ANGULAR INTEGRATION - INTERVALS (ACCURACY LEVEL [N. POINTS] UPPER LIMIT):
  1(  6[ 146]   0.2)  2( 11[ 302]   0.5)  3( 14[ 590]   0.9)  4( 18[1454]   3.5)
  5( 14[ 590]9999.0)
 CYCLE   0   ALPHA   68.491456  EPSILON    3.873027  DELTA    6.8491E+01
 TTTTTTTTTTTTTTTTTTTTTTTTTTTTTT MOQGAD      TELAPSE      295.08 TCPU      290.81
 TTTTTTTTTTTTTTTTTTTTTTTTTTTTTT CP_MONMON   TELAPSE      295.21 TCPU      290.94
 DIIS TEST: 0.10662E+01 AT CPHF  CYCLE   1 - MIX   60 %
 CYCLE   1   ALPHA   79.798472  EPSILON    4.347325  DELTA    1.1307E+01
 TTTTTTTTTTTTTTTTTTTTTTTTTTTTTT MOQGAD      TELAPSE      297.14 TCPU      292.85
 TTTTTTTTTTTTTTTTTTTTTTTTTTTTTT CP_MONMON   TELAPSE      297.27 TCPU      292.99
 DIIS TEST: 0.81799E-01 AT CPHF  CYCLE   2 - DIIS ACTIVE - HISTORY:     2 CYCLES
 CYCLE   2   ALPHA   83.979203  EPSILON    4.522695  DELTA    4.1807E+00
 TTTTTTTTTTTTTTTTTTTTTTTTTTTTTT MOQGAD      TELAPSE      299.20 TCPU      294.90
 TTTTTTTTTTTTTTTTTTTTTTTTTTTTTT CP_MONMON   TELAPSE      299.33 TCPU      295.03
 DIIS TEST: 0.90450E-02 AT CPHF  CYCLE   3 - DIIS ACTIVE - HISTORY:     3 CYCLES
 CYCLE   3   ALPHA   84.780254  EPSILON    4.556297  DELTA    8.0105E-01
 TTTTTTTTTTTTTTTTTTTTTTTTTTTTTT MOQGAD      TELAPSE      301.26 TCPU      296.94
 TTTTTTTTTTTTTTTTTTTTTTTTTTTTTT CP_MONMON   TELAPSE      301.39 TCPU      297.08
 DIIS TEST: 0.75901E-05 AT CPHF  CYCLE   4 - DIIS ACTIVE - HISTORY:     4 CYCLES
 CYCLE   4   ALPHA   84.778810  EPSILON    4.556236  DELTA   -1.4439E-03
 TTTTTTTTTTTTTTTTTTTTTTTTTTTTTT MOQGAD      TELAPSE      303.31 TCPU      298.99
 TTTTTTTTTTTTTTTTTTTTTTTTTTTTTT CP_MONMON   TELAPSE      303.46 TCPU      299.14
 DIIS TEST: 0.19024E-07 AT CPHF  CYCLE   5 - DIIS ACTIVE - HISTORY:     5 CYCLES
 CYCLE   5   ALPHA   84.776752  EPSILON    4.556150  DELTA   -2.0578E-03
 TTTTTTTTTTTTTTTTTTTTTTTTTTTTTT MOQGAD      TELAPSE      305.40 TCPU      301.06
 TTTTTTTTTTTTTTTTTTTTTTTTTTTTTT CP_MONMON   TELAPSE      305.53 TCPU      301.19
 DIIS TEST: 0.11687E-09 AT CPHF  CYCLE   6 - DIIS ACTIVE - HISTORY:     6 CYCLES
 CYCLE   6   ALPHA   84.776619  EPSILON    4.556144  DELTA   -1.3339E-04
 TTTTTTTTTTTTTTTTTTTTTTTTTTTTTT CP_SC       TELAPSE      306.70 TCPU      302.34

 *******************************************************************************

 ELECTRIC FIELD APPLIED ALONG CARTESIAN DIRECTION Y

 *******************************************************************************
 THE NUMBER OF SYMMETRY OPERATORS HAS BEEN REDUCED FROM 24 TO  1

 NEW GRID IN RECIPROCAL SPACE
 *******************************************************************************
 POINTS IN THE IBZ                 260 SHRINKING FACTORS               8  8  8
 *******************************************************************************
 *** K POINTS COORDINATES (OBLIQUE COORDINATES IN UNITS OF SHRINK FAC. )
   1-R(  0  0  0)   2-C(  1  0  0)   3-C(  7  1  0)   4-C(  0  7  0)
   5-C(  2  0  0)   6-C(  6  2  0)   7-C(  0  6  0)   8-C(  3  0  0)
   9-C(  5  3  0)  10-C(  0  5  0)  11-R(  4  0  0)  12-R(  4  4  0)
  13-R(  0  4  0)  14-C(  1  1  0)  15-C(  6  1  0)  16-C(  1  6  0)
  17-C(  2  1  0)  18-C(  5  2  0)  19-C(  1  5  0)  20-C(  2  5  0)
[...]
 *         F      R   R  E     Q  QQ  U   U  E     N  NN  C       Y            *
 *         F      R   R  EEEE   QQ Q   UUU   EEEE  N   N   CCC    Y            *
 *                                                                             *
 *                                                                             *
 * CALCULATION OF PHONON FREQUENCIES AT THE GAMMA POINT.                       *
 *                                                                             *
 * SYMMETRY IS EXPLOITED TO BUILD THE TOTAL HESSIAN MATRIX.                    *
 * (F. PASCALE PHD THESIS TURIN-PARIS 2002)                                    *
 *                                                                             *
 *******************************************************************************


 * INTENSITIES COMPUTED VIA THE CPHF ANALYTICAL APPROACH                       *
 *                                                                             *
 * REFERENCES TO BE QUOTED WHEN USING THIS MODULE:                             *
 *                                                                             *
 * F. Pascale, C.M. Zicovich-Wilson, F. Lopez, B. Civalleri                    *
 * R. Orlando, R. Dovesi                                                       *
 * The calculation of the vibration frequencies of crystalline                 *
 * compounds and its implementation in the CRYSTAL code                        *
 * J. Comput. Chem. 25 (2004) 888-897                                          *
 *                                                                             *
 * C.M. Zicovich-Wilson, F. Pascale, C. Roetti, V.R. Saunders,                 *
 * R. Orlando, R. Dovesi                                                       *
 * The calculation of the vibration frequencies of alpha-quartz:               *
 * the effect of hamiltonian and basis set                                     *
 * J. Comput. Chem. 25 (2004) 1873-1881                                        *
 *******************************************************************************


 *                                                                             *
 * FOR THE ANALYTICAL IR INTENSITIES MODULE PLEASE CITE:                       *
 *                                                                             *
 * L. Maschio, B. Kirtman, R. Orlando, M. Rerat,                               *
 * Ab initio analytical infrared intensities for periodic systems              *
 * through a coupled perturbed Hartree-Fock/Kohn-Sham method                   *
 * J. Chem. Phys. 137, 204113 (2012)                                           *
 *******************************************************************************



 ATOMS ISOTOPIC MASS (AMU) FOR FREQUENCY CALCULATION 

    1 LI      7.0160    2 LI      7.0160    3 LI      7.0160    4 N      14.0031

 INFORMATION CONCERNING THE SCF+GRADIENT CALCULATIONS REQUIRED FOR
 GENERATING FREQUENCIES. IN PRINCIPLE 3N+1 SCF + GRADIENT
 CALCULATIONS  ARE REQUIRED;
 FOR EACH OF THEM THE REMAINING POINT SYMMETRY IS INDICATED.
 POINT SYMMETRY PERMITS TO GENERATE GRADIENTS FOR DISPLACEMENT B 
 STARTING FROM THE GRADIENT GENERATED BY DISPLACEMENT A.

   N   LABEL SYMBOL DISPLACEMENT     SYM. 

   1     EQUILIBRIUM GEOMETRY           24

   2      1   LI           DX        GENERATED BY TRANSLATIONAL INVARIANCE
   3      1   LI           DY        GENERATED BY TRANSLATIONAL INVARIANCE
   4      1   LI           DZ        GENERATED BY TRANSLATIONAL INVARIANCE
   5      2   LI           DX           4
   6      2   LI           DY        GENERATED FROM LINE X WITH OP   3
   7      2   LI           DZ           6
   8      4   N            DX           4
   9      4   N            DY        GENERATED FROM LINE X WITH OP   3
  10      4   N            DZ          12
 USE OF RESIDUAL SYMMETRY AFTER DISPLACEMENT

 NUMERICAL GRADIENT COMPUTED WITH A SINGLE DISPLACEMENT (+DX) FOR EACH
 CARTESIAN COORDINATE WITH RESPECT TO THE EQUILIBRIUM CONFIGURATION
 DX=  0.003 ANGSTROM
 NUMBER OF IRREDUCIBLE ATOMS                     3
 NUMBER OF SCF+GRADIENT CALCULATIONS             5

  ATOM  SYMOP  ORDER
    1     24      6
    2     12      6
    4     24      6

 ATOM  : IRREDUCIBLE ATOM
 SYMOP : NUMBER OF SYMMETRY OPERATORS THAT DOESN'T MOVE THE IRREDUCIBLE ATOM
 ORDER : MAXIMUM ORDER AMONG THE OPERATORS OF THE IRREDUCIBLE ATOM

 *******************************************************************************

 TTTTTTTTTTTTTTTTTTTTTTTTTTTTTT gordsh1     TELAPSE     1914.78 TCPU     1898.96

 MATRIX SIZE: P(G)  294645, F(G)   24622, P(G) IRR   11990, F(G) IRR    2891
 MAX G-VECTOR INDEX FOR 1- AND 2-ELECTRON INTEGRALS 833

 TTTTTTTTTTTTTTTTTTTTTTTTTTTTTT INPUT       TELAPSE     1914.79 TCPU     1898.97

 THERE ARE NO SYMMETRY ALLOWED DIRECTIONS
 TTTTTTTTTTTTTTTTTTTTTTTTTTTTTT SYMM        TELAPSE     1914.80 TCPU     1898.98
 TTTTTTTTTTTTTTTTTTTTTTTTTTTTTT INT_SCREEN  TELAPSE     1914.80 TCPU     1898.98

 HHHHHHHHHHHHHHHHHHHHHHHHHHHHHHHHHHHHHHHHHHHHHHHHHHHHHHHHHHHHHHHHHHHHHHHHHHHHHHH
                   FORCE CONSTANT MATRIX - NUMERICAL ESTIMATE
 HHHHHHHHHHHHHHHHHHHHHHHHHHHHHHHHHHHHHHHHHHHHHHHHHHHHHHHHHHHHHHHHHHHHHHHHHHHHHHH
 MAX ABS(DGRAD): MAXIMUM ABSOLUTE GRADIENT DIFFERENCE WITH RESPECT TO
                 THE CENTRAL POINT
 DE:             ENERGY DIFFERENCE WITH RESPECT TO THE CENTRAL POINT
                 (DE IS EXPECTED TO BE POSITIVE FOR ALL DISPLACEMENTS)

   ATOM      MAX ABS(DGRAD)       TOTAL ENERGY (AU)  N.CYC      DE       SYM
    CENTRAL POINT             -7.732772820005E+01     0     0.0000E+00    24
    2 LI DX   3.9187E-04      -7.732772708367E+01     7     1.1164E-06     4
    2 LI DY                   GENERATED FROM A PREVIOUS LINE
    2 LI DZ   1.5957E-04      -7.732772779591E+01     9     4.0414E-07     6
    4 N  DX   3.0738E-04      -7.732772732600E+01     8     8.7406E-07     4
    4 N  DY                   GENERATED FROM A PREVIOUS LINE
    4 N  DZ   6.7233E-04      -7.732772753486E+01     8     6.6519E-07    12

 GCALCO - MAX INDICES DIRECT LATTICE VECTOR    15    15    12
 NO.OF VECTORS CREATED 6999 STARS  382 RMAX    79.49198 BOHR

 CAPPA:IS1  8;IS2  8;IS3  8; K PTS MONK NET  50; SYMMOPS:K SPACE  24;G SPACE  24

 TTTTTTTTTTTTTTTTTTTTTTTTTTTTTT gordsh1     TELAPSE     2104.96 TCPU     2087.99

 MATRIX SIZE: P(G)  294645, F(G)   24622, P(G) IRR   11990, F(G) IRR    2891
 MAX G-VECTOR INDEX FOR 1- AND 2-ELECTRON INTEGRALS 833

 TTTTTTTTTTTTTTTTTTTTTTTTTTTTTT INPUT       TELAPSE     2104.96 TCPU     2088.00

 THERE ARE NO SYMMETRY ALLOWED DIRECTIONS
 TTTTTTTTTTTTTTTTTTTTTTTTTTTTTT SYMM        TELAPSE     2105.01 TCPU     2088.05
 TTTTTTTTTTTTTTTTTTTTTTTTTTTTTT INT_SCREEN  TELAPSE     2105.01 TCPU     2088.05

 ATOMIC BORN CHARGE TENSOR (UNITS OF e, ELECTRON CHARGE).
 DYNAMIC CHARGE = 1/3 * TRACE .

 ATOM   1 LI DYNAMIC CHARGE     0.879323

              1           2           3
   1     8.4455E-01 -1.3419E-17  1.1029E-24
   2     1.5921E-17  8.4455E-01 -5.4198E-24
   3    -6.5796E-25  1.6728E-24  9.4888E-01

 ATOM   2 LI DYNAMIC CHARGE     0.732757

              1           2           3
   1     8.8627E-01 -2.1507E-18 -1.1029E-24
   2    -5.7377E-18  8.8627E-01  2.2058E-24
   3     1.1155E-25  6.3592E-25  4.2573E-01

 ATOM   3 LI DYNAMIC CHARGE     0.732757

              1           2           3
   1     8.8627E-01  1.0754E-18  0.0000E+00
   2     4.7251E-19  8.8627E-01  1.6544E-24
   3    -2.4864E-25  6.4708E-25  4.2573E-01

 ATOM   4 N  DYNAMIC CHARGE    -2.344838

              1           2           3
   1    -2.6171E+00  1.4494E-17  0.0000E+00
   2    -1.0656E-17 -2.6171E+00  1.5596E-24
   3     7.9506E-25 -2.9558E-24 -1.8003E+00

 +++ SYMMETRY ADAPTION OF VIBRATIONAL MODES +++

 SYMMETRY INFORMATION:
 K-LITTLE GROUP: CLASS TABLE, CHARACTER TABLE.
 IRREP-(DIMENSION, NO. IRREDUCIBLE SETS)
 [WARNINGS: (1) ONLY ACTIVE IRREPS ARE GENERATED AND LISTED.
            (2) ONLY RELEVANT CLASSES ARE CONSIDERED IN THE CHARACTER TABLE
            (3) SYMBOLS MAY NOT FULLY COINCIDE WITH THOSE FROM TEXT BOOKS.]

 (P, D, RP, RD, STAND FOR PAIRING, DOUBLING, REAL PAIRING AND REAL DOUBLING 
 OF THE IRREPS (SEE MANUAL))

 CLASS  | GROUP OPERATORS (SEE SYMMOPS KEYWORD)
 --------------------------------------------------------------------
 C2     |   2;
 C3     |   3;   4;
 C6     |   5;   6;
 C2'    |   7;   8;   9;
 C2''   |  10;  12;  11;
 I      |  13;
 SGH    |  14;
 S6     |  15;  16;
 S6'    |  17;  18;
 SGV    |  19;  20;  21;
 SGV'   |  22;  24;  23;

 IRREP/CLA      E     C2     C3     C6    C2'   C2''      I    SGH     S6    S6'
 -------------------------------------------------------------------------------
  MULTIP |      1      1      2      2      3      3      1      1      2      2
 -------------------------------------------------------------------------------
    Bg   |   1.00  -1.00   1.00  -1.00   1.00  -1.00   1.00  -1.00   1.00  -1.00
    E2g  |   2.00   2.00  -1.00  -1.00   0.00   0.00   2.00   2.00  -1.00  -1.00
    Au   |   1.00   1.00   1.00   1.00  -1.00  -1.00  -1.00  -1.00  -1.00  -1.00
    E1u  |   2.00  -2.00  -1.00   1.00   0.00   0.00  -2.00   2.00   1.00  -1.00

 IRREP/CLA    SGV   SGV'
 -----------------------
  MULTIP |      3      3
 -----------------------
    Bg   |   1.00  -1.00
    E2g  |   0.00   0.00
    Au   |   1.00   1.00
    E1u  |   0.00   0.00

 Bg -(1,   1); E2g-(2,   1);
 Au -(1,   3); E1u-(2,   3);

 BORN CHARGE VECTOR IN THE BASIS OF NORMAL MODES (UNITS OF e*M_E**(-1/2) ).
 e AND M_E ARE UNITS OF ELECTRON CHARGE AND MASS, RESPECTIVELY.

 MODE         X              Y              Z
   1    0.22672E-41   -0.12550E-40    0.24302E-17
   2   -0.17934E-34    0.42915E-17    0.39757E-41
   3    0.12200E-17   -0.19664E-35   -0.78073E-42
   4    0.68960E-26   -0.34480E-26   -0.39976E-19
   5    0.92300E-02    0.15834E-18   -0.66874E-26
   6   -0.13569E-18    0.92300E-02    0.17380E-25
   7   -0.19019E-01   -0.16691E-19    0.38245E-26
   8    0.62791E-19   -0.19019E-01   -0.17982E-25
   9    0.84333E-26   -0.28546E-25   -0.76308E-02
  10   -0.29809E-18   -0.38830E-19    0.22522E-26
  11   -0.20172E-19   -0.25400E-18   -0.69758E-28
  12    0.84584E-26   -0.46472E-25    0.12942E-01

 HHHHHHHHHHHHHHHHHHHHHHHHHHHHHHHHHHHHHHHHHHHHHHHHHHHHHHHHHHHHHHHHHHHHHHHHHHHHHH
 VIBRATIONAL CONTRIBUTIONS TO THE STATIC DIELECTRIC TENSOR (OSCILLATOR
 STRENGTHS) ARE PURE NUMBERS. THEY ARE COMPUTED FOR EACH nth MODE AS:

   f_(n,ij) = 1 / (4 * pi * eps0) * 4 * pi / V * Z_(n,i) * Z_(n,j) / nu_n**2

 WHERE:
  1/(4*pi*eps0)  1 A.U. [M*L**3*T**(-4)*C**(-2)]
  V              CELL VOLUME (BOHR**3) [L**3]
  Z_(n,i)        ith COMPONENT OF BORN CHARGE VECTOR IN THE BASIS
                 OF NORMAL MODES ( e*M_E**(-1/2) ) [C*T*M**(-1/2)]
  nu_n           FREQUENCY (HARTREE) [T**(-1)]
  e, M_E         UNITS OF ELECTRON CHARGE AND MASS, RESPECTIVELY
  M, L, T, C     MASS, LENGTH, TIME, CURRENT, RESPECTIVELY

 HHHHHHHHHHHHHHHHHHHHHHHHHHHHHHHHHHHHHHHHHHHHHHHHHHHHHHHHHHHHHHHHHHHHHHHHHHHHHH

 MODE      CARTESIAN AXES SYSTEM

   5       1.62376    0.00000   -0.00000
           0.00000    0.00000   -0.00000
          -0.00000   -0.00000    0.00000

   6       0.00000   -0.00000   -0.00000
          -0.00000    1.62376    0.00000
          -0.00000    0.00000    0.00000

   7       3.92507    0.00000   -0.00000
           0.00000    0.00000   -0.00000
          -0.00000   -0.00000    0.00000

   8       0.00000   -0.00000   -0.00000
          -0.00000    3.92507    0.00000
          -0.00000    0.00000    0.00000

   9       0.00000   -0.00000   -0.00000
          -0.00000    0.00000    0.00000
          -0.00000    0.00000    0.44630

  12       0.00000   -0.00000    0.00000
          -0.00000    0.00000   -0.00000
           0.00000   -0.00000    0.67745

 SUM TENSOR OF THE VIBRATIONAL CONTRIBUTIONS TO THE STATIC DIELECTRIC     TENSOR

           5.54883   -0.00000   -0.00000
          -0.00000    5.54883    0.00000
          -0.00000    0.00000    1.12375

 INTEGRATED IR INTENSITIES, IN UNITS OF KM/MOL, ARE COMPUTED UNDER THE
 HYPOTHESIS OF ISOTROPIC RESPONSE (I.E. POWDER SAMPLE):

   INTENS_n = 1 / (4 * pi * eps0) * pi * N_AV / 3 / c**2 *
                             * d_n * ( Z_(n,x)**2 + Z_(n,y)**2 + Z_(n,z)**2 )
            = 0.17770712E+07 * d_n * ( Z_(n,x)**2 + Z_(n,y)**2 + Z_(n,z)**2 )

 WHERE:
  1/(4*pi*eps0)  1 A.U. [M*L**3*T**(-4)*C**(-2)]
  N_AV           AVOGADRO'S NUMBER [QM**(-1)]
  c              SPEED OF LIGHT [L*T**(-1)]
  d_n            DEGENERACY OF THE MODE
  Z_(n,x)        xth COMPONENT OF BORN CHARGE VECTOR IN THE BASIS
                 OF NORMAL MODES ( e*M_E**(-1/2) ) [C*T*M**(-1/2)]
  M,L,T,C,QM     MASS, LENGTH, TIME, CURRENT, QUANTITY OF MATTER, RESPECTIVELY

 HHHHHHHHHHHHHHHHHHHHHHHHHHHHHHHHHHHHHHHHHHHHHHHHHHHHHHHHHHHHHHHHHHHHHHHHHHHHHH
 EIGENVALUES (EIGV) OF THE MASS WEIGHTED HESSIAN MATRIX AND HARMONIC TRANSVERSE
 OPTICAL (TO) FREQUENCIES. IRREP LABELS REFER TO SYMMETRY REPRESENTATION
 ANALYSIS; A AND I INDICATE WHETHER THE MODE IS ACTIVE OR INACTIVE,
 RESPECTIVELY, FOR IR AND RAMAN; INTEGRATED IR INTENSITIES IN BRACKETS.

 CONVERSION FACTORS FOR FREQUENCIES:
      1 CM**(-1) =   0.4556335E-05 HARTREE
      1 THZ      =   0.3335641E+02 CM**(-1)

 HHHHHHHHHHHHHHHHHHHHHHHHHHHHHHHHHHHHHHHHHHHHHHHHHHHHHHHHHHHHHHHHHHHHHHHHHHHHHH

    MODES         EIGV          FREQUENCIES     IRREP  IR   INTENS    RAMAN
             (HARTREE**2)   (CM**-1)     (THZ)             (KM/MOL)
    1-   1   -0.8559E-21      0.0000    0.0000  (Au )   A (     0.00)   I
    2-   3    0.2131E-21      0.0000    0.0000  (E1u)   A (     0.00)   I
    4-   4    0.2657E-06    113.1269    3.3915  (Bg )   I (     0.00)   I
    5-   6    0.2201E-05    325.5936    9.7611  (E1u)   A (   302.79)   I
    7-   8    0.3866E-05    431.5229   12.9367  (E1u)   A (  1285.64)   I
    9-   9    0.5473E-05    513.4432   15.3926  (Au )   A (   103.48)   I
   10-  11    0.8630E-05    644.7407   19.3288  (E2g)   I (     0.00)   A
   12-  12    0.1037E-04    706.7955   21.1892  (Au )   A (   297.64)   I

 <RAMAN><RAMAN><RAMAN><RAMAN><RAMAN><RAMAN><RAMAN><RAMAN><RAMAN><RAMAN><RAMAN>
 <RAMAN><RAMAN><RAMAN><RAMAN><RAMAN><RAMAN><RAMAN><RAMAN><RAMAN><RAMAN><RAMAN>

 RAMAN INTENSITIES UNDER PLACZECK APPROXIMATION ARE COMPUTED AS:

  DIRECTIONAL (SINGLE CRYSTAL) :

     I_ij(n)= VOLUME*X(n,i,j)**2

  ISOTROPIC (POLYCRYSTALLINE POWDERS, GASES) :

     G_0(n) = 1/3*(SUM_i X(n,i,i))**2
     G_1(n) = 1/2*SUM_i,j (X(n,i,j)+X(n,j,i))**2
     G_2(n) = 1/3*SUM_i,j (X(n,i,i)-X(n,j,j))**2

     I_par(n)  = VOLUME*( 15*G_0(n) + 6*(G_1(n) + G_2(n)) )
     I_perp(n) = VOLUME*9/2*( G_1(n) + G_2(n) )
     I_tot(n)  = I_par(n) + I_perp(n)

  WHERE X(n,i,j) IS THE i,j-th COMPONENT OF THE RAMAN TENSOR
  IN THE BASIS OF NORMAL MODE n

  ALL VALUES ARE NORMALIZED TO THE MOST INTENSE PEAK


  INTENSITIES HAVE BEEN CALCULATED AT 
  TEMPERATURE                  :    298.0 K
  FREQUENCY OF INCOMING LASER  :    514.0 NM


 REFERENCES TO BE QUOTED FOR RAMAN INTENSITIES:

 L.MASCHIO, B.KIRTMAN, M.RERAT, R.ORLANDO and R.DOVESI, JCP 139, 164101 (2013)
 L.MASCHIO, B.KIRTMAN, M.RERAT, R.ORLANDO and R.DOVESI, JCP 139, 164102 (2013)

  --
  POLYCRYSTALLINE ISOTROPIC INTENSITIES (ARBITRARY UNITS)

    MODES    FREQUENCIES           I_tot     I_par    I_perp
  ----------------------------------------------------------------
   10-  11      644.7407 (E2g)   1000.00    571.43    428.57

  --
  SINGLE CRYSTAL DIRECTIONAL INTENSITIES (ARBITRARY UNITS)

    MODES    FREQUENCIES          I_xx    I_xy    I_xz    I_yy    I_yz    I_zz
  ----------------------------------------------------------------------------
   10-  11      644.7407 (E2g)  999.99 1000.00    0.00 1000.00    0.00    0.00

 <RAMAN><RAMAN><RAMAN><RAMAN><RAMAN><RAMAN><RAMAN><RAMAN><RAMAN><RAMAN><RAMAN>
 <RAMAN><RAMAN><RAMAN><RAMAN><RAMAN><RAMAN><RAMAN><RAMAN><RAMAN><RAMAN><RAMAN>


 NORMAL MODES NORMALIZED TO CLASSICAL AMPLITUDES (IN BOHR)

 FREQ(CM**-1)      0.00      0.00      0.00    113.13    325.59    325.59

 AT.   1 LI X     0.0000    0.0000    0.1689    0.0000    0.2051    0.0000
            Y     0.0000    0.1689    0.0000    0.0000    0.0000    0.2051
            Z    -0.1689    0.0000    0.0000    0.0000    0.0000    0.0000
 AT.   2 LI X     0.0000    0.0000    0.1689    0.0000   -0.0461    0.0000
            Y     0.0000    0.1689    0.0000    0.0000    0.0000   -0.0461
            Z    -0.1689    0.0000    0.0000   -0.2754    0.0000    0.0000
 AT.   3 LI X     0.0000    0.0000    0.1689    0.0000   -0.0461    0.0000
            Y     0.0000    0.1689    0.0000    0.0000    0.0000   -0.0461
            Z    -0.1689    0.0000    0.0000    0.2754    0.0000    0.0000
 AT.   4 N  X     0.0000    0.0000    0.1689    0.0000   -0.0566    0.0000
            Y     0.0000    0.1689    0.0000    0.0000    0.0000   -0.0566
            Z    -0.1689    0.0000    0.0000    0.0000    0.0000    0.0000

 FREQ(CM**-1)    431.52    431.52    513.44    644.74    644.74    706.80

 AT.   1 LI X     0.0082    0.0000    0.0000    0.0000    0.0000    0.0000
            Y     0.0000    0.0082    0.0000    0.0000    0.0000    0.0000
            Z     0.0000    0.0000    0.0581    0.0000    0.0000    0.1302
 AT.   2 LI X    -0.1016    0.0000    0.0000    0.1154    0.0000    0.0000
            Y     0.0000   -0.1016    0.0000    0.0000    0.1154    0.0000
            Z     0.0000    0.0000   -0.0999    0.0000    0.0000   -0.0049
 AT.   3 LI X    -0.1016    0.0000    0.0000   -0.1154    0.0000    0.0000
            Y     0.0000   -0.1016    0.0000    0.0000   -0.1154    0.0000
            Z     0.0000    0.0000   -0.0999    0.0000    0.0000   -0.0049
 AT.   4 N  X     0.0977    0.0000    0.0000    0.0000    0.0000    0.0000
            Y     0.0000    0.0977    0.0000    0.0000    0.0000    0.0000
            Z     0.0000    0.0000    0.0710    0.0000    0.0000   -0.0603

 *******************************************************************************

 VIBRATIONAL TEMPERATURES (K) [MODE NUMBER;IRREP]

 TO MODES
   162.8 [   4;Bg ]   468.5 [   5;E1u]   468.5 [   6;E1u]   620.9 [   7;E1u]
   620.9 [   8;E1u]   738.7 [   9;Au ]   927.6 [  10;E2g]   927.6 [  11;E2g]
  1016.9 [  12;Au ]

 *******************************************************************************

 HARMONIC VIBRATIONAL CONTRIBUTIONS TO THERMODYNAMIC FUNCTIONS AT GIVEN
 TEMPERATURE AND PRESSURE:

 (EL = ELECTRONIC ENERGY
  E0 = ZERO-POINT ENERGY
  ET = THERMAL CONTRIBUTION TO THE VIBRATIONAL ENERGY
  PV = PRESSURE * VOLUME
  TS = TEMPERATURE * ENTROPY)

                          AU/CELL             EV/CELL                 KJ/MOL
 EL            :     -77.327728200052   -2104.194459502610     -203023.92177798
 E0            :       0.009424962004       0.256466254621          24.74523425


 *******************************************************************************

 THERMODYNAMIC FUNCTIONS WITH VIBRATIONAL CONTRIBUTIONS

 AT (T =  298.15 K, P =   0.10132500E+00 MPA):

                          AU/CELL             EV/CELL                 KJ/MOL
 ET            :       0.002646120644       0.072004603369           6.94738877
 PV            :       0.000001031729       0.000028074773           0.00270880
 TS            :       0.004355403858       0.118516564242          11.43511122
 ET+PV-TS      :      -0.001708251485      -0.046483886101          -4.48501364
 EL+E0+ET+PV-TS:     -77.320011489533   -2103.984477134090     -203003.66155736

 OTHER THERMODYNAMIC FUNCTIONS:

                      mHARTREE/(CELL*K)     mEV/(CELL*K)              J/(MOL*K)
 ENTROPY       :       0.014608096119       0.397506504249          38.35355096
 HEAT CAPACITY :       0.018970257701       0.516206955512          49.80640458

 *******************************************************************************
 TTTTTTTTTTTTTTTTTTTTTTTTTTTTTT END         TELAPSE     2105.04 TCPU     2088.08
 EEEEEEEEEE TERMINATION  DATE 25 07 2023 TIME 17:51:53.2
