         256 PROCESSORS WORKING

         
 *******************************************************************************
 *                                                                             *
 *                               CRYSTAL23                                     *
 *                      public : 1.0.1 - October 2022                          *
 *                       HTTP://WWW.CRYSTAL.UNITO.IT                           *
 *                                                                             *
 *                              MAIN AUTHORS                                   *
 *                                                                             *
 *  R. DOVESI(1,11), V.R. SAUNDERS(2), C. ROETTI(1,11), R. ORLANDO(1,11),      *
 *  C.M. ZICOVICH-WILSON(1,3), F. PASCALE(4), B. CIVALLERI(1,11),              *
 *  K. DOLL(5), N.M. HARRISON(6), I.J. BUSH(7), Ph. D'ARCO(8),                 *
 *  M. LLUNELL(9), M. CAUSA'(10), Y. NOEL(8), L. MASCHIO(1,11), A. ERBA(1,11)  *
 *  M. RE'RAT(14), S. CASASSA(1,11), B.G. SEARLE(2), J.K. DESMARAIS(1)         *
 *                                                                             *
 *        CONTRIBUTIONS TO THE CODE HAVE ALSO BEEN GIVEN BY                    *
 *                                                                             *
 *  M. FERRABONE(1,11), M. DE LA PIERRE(1,11), M. FERRERO(1,11),               *
 *  J. BAIMA(1,11), E. ALBANESE(1,11), M.F. PEINTINGER(12), R. BAST(13),       *
 *  B. KIRTMAN(15), V. LACIVITA(1,11), R. DEMICHELIS(1,16)                     *
 *  G. BRANDEBURG(17), S. SALUSTRO(1,11), G. SANSONE(1,11)                     *
 *  M.T. RUGGIERO(18), L.E. DAGA(1), L. DONA'(1), A. COSSARD(1)                *
 *                                                                             *
 * (1) THEORETICAL CHEMISTRY GROUP - UNIVERSITA' DI TORINO - TORINO (ITALY)    *
 * (2) SCIENTIFIC COMPUTING DEPARTMENT - STFC DARESBURY (UK)                   *
 * (3) UNIVERSIDAD AUTONOMA DEL ESTADO DE MORELOS - CUERNAVACA (MEXICO)        *
 * (4) UNIVERSITE' DE LORRAINE - NANCY (FRANCE)                                *
 * (5) UNIVERSITAET STUTTGART- STUTTGART (GERMANY)                             *
 * (6) IMPERIAL COLLEGE - LONDON (UK)                                          *
 * (7) SCIENTIFIC COMPUTING DEPARTMENT - STFC RAL (UK)                         *
 * (8) UPMC - SORBONNE UNIVERSITES - PARIS (FRANCE)                            *
 * (9) UNIVERSIDAD DE BARCELONA - BARCELONA (SPAIN)                            *
 *(10) UNIVERSITA' DI NAPOLI "FEDERICO II" - NAPOLI (ITALY)                    *
 *(11) NIS - NANOSTRUCTURED INTERFACES AND SURFACES - TORINO (ITALY)           *
 *(12) MPI FUER CHEMISCHE ENERGIEKONVERSION - MUELHEIM AN DER RUHR (GERMANY)   *
 *(13) UNIVERSITY OF TROMSO - TROMSO (NORWAY)                                  *
 *(14) UNIVERSITE' DE PAU ET DES PAYS DE L'ADOUR - PAU (FRANCE)                *
 *(15) UNIVERSITY OF CALIFORNIA SANTA BARBARA - SANTA BARBARA (USA)            *
 *(16) CURTIN UNIVERSITY - PERTH (AUSTRALIA)                                   *
 *(17) UNIVERSITY COLLEGE LONDON - LONDON (UK)                                 *
 *(18) UNIVERSITY OF VERMONT - BURLINGTON (USA)                                *
 *                                                                             *
 *******************************************************************************
 EEEEEEEEEE STARTING  DATE 29 05 2023 TIME 18:00:17.1
 ICSD_CollCode316.cif                                                            

 CRYSTAL CALCULATION
 (INPUT ACCORDING TO THE INTERNATIONAL TABLES FOR X-RAY CRYSTALLOGRAPHY)
 CRYSTAL FAMILY                       :  CUBIC       
 CRYSTAL CLASS  (GROTH - 1921)        :  CUBIC DYAKISDODECAHEDRAL             

 SPACE GROUP (CENTROSYMMETRIC)        :  P A 3           

 LATTICE PARAMETERS  (ANGSTROMS AND DEGREES) - CONVENTIONAL CELL
        A           B           C        ALPHA        BETA       GAMMA
     5.42810     5.42810     5.42810    90.00000    90.00000    90.00000


 NUMBER OF IRREDUCIBLE ATOMS IN THE CONVENTIONAL CELL:    2

 INPUT COORDINATES

 ATOM AT. N.              COORDINATES
   1  26     5.000000000000E-01  5.000000000000E-01  0.000000000000E+00
   2  16     1.149600000000E-01  8.850400000000E-01  3.850400000000E-01

 *******************************************************************************

 << INFORMATION >>: FROM NOW ON, ALL COORDINATES REFER TO THE PRIMITIVE CELL

 *******************************************************************************

 LATTICE PARAMETERS  (ANGSTROMS AND DEGREES) - PRIMITIVE CELL
       A          B          C        ALPHA      BETA     GAMMA        VOLUME
    5.42810    5.42810    5.42810    90.00000  90.00000  90.00000    159.935002

 COORDINATES OF THE EQUIVALENT ATOMS (FRACTIONAL UNITS)

 N. ATOM EQUIV AT. N.          X                  Y                  Z

   1   1   1   26 FE   -5.00000000000E-01 -5.00000000000E-01  0.00000000000E+00
   2   1   2   26 FE    0.00000000000E+00  5.00000000000E-01 -5.00000000000E-01
   3   1   3   26 FE    0.00000000000E+00  0.00000000000E+00  0.00000000000E+00
   4   1   4   26 FE    5.00000000000E-01  0.00000000000E+00 -5.00000000000E-01

   5   2   1   16 S     1.14960000000E-01 -1.14960000000E-01  3.85040000000E-01
   6   2   2   16 S     3.85040000000E-01  1.14960000000E-01 -1.14960000000E-01
   7   2   3   16 S    -3.85040000000E-01 -3.85040000000E-01 -3.85040000000E-01
   8   2   4   16 S    -1.14960000000E-01  3.85040000000E-01  1.14960000000E-01
   9   2   5   16 S    -1.14960000000E-01  1.14960000000E-01 -3.85040000000E-01
  10   2   6   16 S    -3.85040000000E-01 -1.14960000000E-01  1.14960000000E-01
  11   2   7   16 S     3.85040000000E-01  3.85040000000E-01  3.85040000000E-01
  12   2   8   16 S     1.14960000000E-01 -3.85040000000E-01 -1.14960000000E-01

 NUMBER OF SYMMETRY OPERATORS         :   24
 *******************************************************************************
 * GEOMETRY EDITING - INPUT COORDINATES ARE GIVEN IN ANGSTROM         
 *******************************************************************************

 GEOMETRY NOW FULLY CONSISTENT WITH THE GROUP

 FRQFRQFRQFRQFRQFRQFRQFRQFRQFRQFRQFRQFRQFRQFRQFRQFRQFRQFRQFRQFRQFRQFRQFRQFRQFRQ

                       FREQUENCY CALCULATION

 OPTIMIZATION PERFORMED BEFORE FREQUENCIES CALCULATION
 *******************************************************************************
 INFORMATION **** NEW DEFAULT **** FINALRUN 4 FOR GEOMETRY OPTIMIZATIONS
 INFORMATION **** NEW DEFAULT **** OPTGEOM OPTIMIZES ATOMIC COORDINATES ONLY
 INFORMATION **** NEW DEFAULT **** TOL. ON ATOMIC DISP TO REDEFINE REF. GEOMETRY: 0.8 Angs
 INFORMATION **** NEW DEFAULT **** N POINTS TO REDEFINE REF. GEOMETRY: N OF OPT DEGS OF FREEDOM
 INFORMATION **** NEW DEFAULT **** TOL. ON ENERGY TO REDEFINE REF. GEOMETRY: 10**-3*(5*N. ATOMS)
 INFORMATION **** FULLOPTG **** FULL OPTIMIZATION (ATOMS AND CELL PARAMETERS)

 IMPORTANT INFORMATION:
 THE COORDINATE SYSTEM ADOPTED IN THE OPTIMIZATION IS NOT IN
 GENERAL HOMOGENEOUS UNITS. FOR THIS REASON THE GRADIENT AND 
 HESSIAN MATRIX IN TERMS OF THIS SYSTEM ARE GIVEN WITHOUT
 UNITS. FOR MORE DETAILS SEE THE MANUAL.

 *******************************************************************************
 COMBINED CELL/ATOM OPTIMIZATION CONTROL

 INITIAL TRUST RADIUS         0.50000 MAXIMUM TRUST RADIUS               0.50000
 MAXIMUM GRADIENT COMPONENT   0.00005 MAXIMUM DISPLACEMENT COMPONENT     0.00018
 R.M.S. OF GRADIENT COMPONENT 0.00003 R.M.S. OF DISPLACEMENT COMPONENTS  0.00012
 THRESHOLD ON ENERGY CHANGE 0.100E-06 EXTRAPOLATING POLYNOMIAL ORDER           2
 MAXIMUM ALLOWED NUMBER OF STEPS   -1 SORTING OF ENERGY POINTS:               NO
 ANALYTICAL  GRADIENT                 HESSIAN UPDATING                      BFGS
 STEP SIZE NUMERICAL GRADIENT 0.00100
 INITIAL HESSIAN MATRIX: SCHLEGEL MODEL 2
 *******************************************************************************

 INFORMATION **** INPFREQ **** IR INTENSITIES EVALUATED THROUGH CPHF APPROACH
 INFORMATION **** INPFREQ **** NEW DEFAULT - IMPOSING ECKART CONDITIONS TO THE HESSIAN

 GCALCO - MAX INDICES DIRECT LATTICE VECTOR    14    14    14
 NO.OF VECTORS CREATED 6999 STARS  120 RMAX   121.80252 BOHR

 GEOMETRY FOR WAVE FUNCTION - DIMENSIONALITY OF THE SYSTEM    3
 (NON PERIODIC DIRECTION: LATTICE PARAMETER FORMALLY SET TO 500)
 *******************************************************************************
 LATTICE PARAMETERS (ANGSTROMS AND DEGREES) - BOHR = 0.5291772083 ANGSTROM
 PRIMITIVE CELL - CENTRING CODE 1/0 VOLUME=   159.935002 - DENSITY  4.979 g/cm^3
         A              B              C           ALPHA      BETA       GAMMA 
     5.42810000     5.42810000     5.42810000    90.000000  90.000000  90.000000
 *******************************************************************************
 ATOMS IN THE ASYMMETRIC UNIT    2 - ATOMS IN THE UNIT CELL:   12
     ATOM                 X/A                 Y/B                 Z/C    
 *******************************************************************************
      1 T  26 FE   -5.000000000000E-01  5.000000000000E-01  0.000000000000E+00
      2 F  26 FE    0.000000000000E+00  5.000000000000E-01  5.000000000000E-01
      3 F  26 FE    0.000000000000E+00  0.000000000000E+00  0.000000000000E+00
      4 F  26 FE   -5.000000000000E-01  0.000000000000E+00  5.000000000000E-01
      5 T  16 S     1.149600000000E-01 -1.149600000000E-01  3.850400000000E-01
      6 F  16 S     3.850400000000E-01  1.149600000000E-01 -1.149600000000E-01
      7 F  16 S    -3.850400000000E-01 -3.850400000000E-01 -3.850400000000E-01
      8 F  16 S    -1.149600000000E-01  3.850400000000E-01  1.149600000000E-01
      9 F  16 S    -1.149600000000E-01  1.149600000000E-01 -3.850400000000E-01
     10 F  16 S    -3.850400000000E-01 -1.149600000000E-01  1.149600000000E-01
     11 F  16 S     3.850400000000E-01  3.850400000000E-01  3.850400000000E-01
     12 F  16 S     1.149600000000E-01 -3.850400000000E-01 -1.149600000000E-01

 T = ATOM BELONGING TO THE ASYMMETRIC UNIT

 ****   24 SYMMOPS - TRANSLATORS IN FRACTIONAL UNITS
 **** MATRICES AND TRANSLATORS IN THE CRYSTALLOGRAPHIC REFERENCE FRAME
   V INV                    ROTATION MATRICES                   TRANSLATORS
   1   1  1.00  0.00  0.00  0.00  1.00  0.00  0.00  0.00  1.00  0.00  0.00  0.00
   2   2 -1.00  0.00  0.00  0.00 -1.00  0.00  0.00  0.00  1.00  0.50  0.00  0.50
   3   3  1.00  0.00  0.00  0.00 -1.00  0.00  0.00  0.00 -1.00  0.50  0.50  0.00
   4   4 -1.00  0.00  0.00  0.00  1.00  0.00  0.00  0.00 -1.00  0.00  0.50  0.50
   5   6  0.00  0.00  1.00  1.00  0.00  0.00  0.00  1.00  0.00  0.00  0.00  0.00
   6   5  0.00  1.00  0.00  0.00  0.00  1.00  1.00  0.00  0.00  0.00  0.00  0.00
   7   8  0.00  0.00 -1.00 -1.00  0.00  0.00  0.00  1.00  0.00  0.50  0.00  0.50
   8   7  0.00 -1.00  0.00  0.00  0.00  1.00 -1.00  0.00  0.00  0.00  0.50  0.50
   9  10  0.00  0.00  1.00 -1.00  0.00  0.00  0.00 -1.00  0.00  0.50  0.50  0.00
  10   9  0.00 -1.00  0.00  0.00  0.00 -1.00  1.00  0.00  0.00  0.50  0.00  0.50
  11  12  0.00  0.00 -1.00  1.00  0.00  0.00  0.00 -1.00  0.00  0.00  0.50  0.50
  12  11  0.00  1.00  0.00  0.00  0.00 -1.00 -1.00  0.00  0.00  0.50  0.50  0.00
  13  13 -1.00  0.00  0.00  0.00 -1.00  0.00  0.00  0.00 -1.00  0.00  0.00  0.00
  14  14  1.00  0.00  0.00  0.00  1.00  0.00  0.00  0.00 -1.00  0.50  0.00  0.50
  15  15 -1.00  0.00  0.00  0.00  1.00  0.00  0.00  0.00  1.00  0.50  0.50  0.00
  16  16  1.00  0.00  0.00  0.00 -1.00  0.00  0.00  0.00  1.00  0.00  0.50  0.50
  17  18  0.00  0.00 -1.00 -1.00  0.00  0.00  0.00 -1.00  0.00  0.00  0.00  0.00
  18  17  0.00 -1.00  0.00  0.00  0.00 -1.00 -1.00  0.00  0.00  0.00  0.00  0.00
  19  20  0.00  0.00  1.00  1.00  0.00  0.00  0.00 -1.00  0.00  0.50  0.00  0.50
  20  19  0.00  1.00  0.00  0.00  0.00 -1.00  1.00  0.00  0.00  0.00  0.50  0.50
  21  22  0.00  0.00 -1.00  1.00  0.00  0.00  0.00  1.00  0.00  0.50  0.50  0.00
  22  21  0.00  1.00  0.00  0.00  0.00  1.00 -1.00  0.00  0.00  0.50  0.00  0.50
  23  24  0.00  0.00  1.00 -1.00  0.00  0.00  0.00  1.00  0.00  0.00  0.50  0.50
  24  23  0.00 -1.00  0.00  0.00  0.00  1.00  1.00  0.00  0.00  0.50  0.50  0.00

 DIRECT LATTICE VECTORS CARTESIAN COMPONENTS (ANGSTROM)
          X                    Y                    Z
   0.542810000000E+01   0.000000000000E+00   0.000000000000E+00
   0.000000000000E+00   0.542810000000E+01   0.000000000000E+00
   0.000000000000E+00   0.000000000000E+00   0.542810000000E+01


 CARTESIAN COORDINATES - PRIMITIVE CELL
 *******************************************************************************
 *      ATOM          X(ANGSTROM)         Y(ANGSTROM)         Z(ANGSTROM)
 *******************************************************************************
    1    26 FE    2.714050000000E+00  2.714050000000E+00  0.000000000000E+00
    2    26 FE    0.000000000000E+00  2.714050000000E+00  2.714050000000E+00
    3    26 FE    0.000000000000E+00  0.000000000000E+00  0.000000000000E+00
    4    26 FE    2.714050000000E+00  0.000000000000E+00  2.714050000000E+00
    5    16 S     6.240143760000E-01 -6.240143760000E-01  2.090035624000E+00
    6    16 S     2.090035624000E+00  6.240143760000E-01 -6.240143760000E-01
    7    16 S    -2.090035624000E+00 -2.090035624000E+00 -2.090035624000E+00
    8    16 S    -6.240143760000E-01  2.090035624000E+00  6.240143760000E-01
    9    16 S    -6.240143760000E-01  6.240143760000E-01 -2.090035624000E+00
   10    16 S    -2.090035624000E+00 -6.240143760000E-01  6.240143760000E-01
   11    16 S     2.090035624000E+00  2.090035624000E+00  2.090035624000E+00
   12    16 S     6.240143760000E-01 -2.090035624000E+00 -6.240143760000E-01

 *******************************************************************************
 LOCAL ATOMIC FUNCTIONS BASIS SET
 *******************************************************************************
   ATOM   X(AU)   Y(AU)   Z(AU)  N. TYPE  EXPONENT  S COEF   P COEF   D/F/G COEF
 *******************************************************************************
   1 FE   5.129   5.129   0.000
                                  1 S  
                                         3.008E+05 2.281E-04 0.000E+00 0.000E+00
                                         4.509E+04 1.768E-03 0.000E+00 0.000E+00
                                         1.026E+04 9.193E-03 0.000E+00 0.000E+00
                                         2.905E+03 3.736E-02 0.000E+00 0.000E+00
                                         9.461E+02 1.215E-01 0.000E+00 0.000E+00
                                         3.399E+02 2.882E-01 0.000E+00 0.000E+00
                                         1.319E+02 4.113E-01 0.000E+00 0.000E+00
                                         5.211E+01 2.152E-01 0.000E+00 0.000E+00
                                  2 S  
                                         3.295E+02-2.475E-02 0.000E+00 0.000E+00
                                         1.019E+02-1.168E-01 0.000E+00 0.000E+00
                                         1.624E+01 5.529E-01 0.000E+00 0.000E+00
                                         6.884E+00 5.360E-01 0.000E+00 0.000E+00
                                  3 S  
                                         1.047E+01-2.291E-01 0.000E+00 0.000E+00
                                         1.736E+00 7.116E-01 0.000E+00 0.000E+00
                                  4 S  
                                         1.257E+00 1.000E+00 0.000E+00 0.000E+00
                                  5 S  
                                         5.755E-01 1.000E+00 0.000E+00 0.000E+00
                                  6 S  
                                         1.559E-01 1.000E+00 0.000E+00 0.000E+00
                           7-     9 P  
                                         1.585E+03 0.000E+00 2.379E-03 0.000E+00
                                         3.754E+02 0.000E+00 1.925E-02 0.000E+00
                                         1.203E+02 0.000E+00 9.002E-02 0.000E+00
                                         4.479E+01 0.000E+00 2.580E-01 0.000E+00
                                         1.783E+01 0.000E+00 4.149E-01 0.000E+00
                                         7.225E+00 0.000E+00 2.421E-01 0.000E+00
                          10-    12 P  
                                         2.814E+01 0.000E+00-2.904E-02 0.000E+00
                                         3.874E+00 0.000E+00 5.531E-01 0.000E+00
                                         1.541E+00 0.000E+00 9.677E-01 0.000E+00
                          13-    15 P  
                                         6.337E-01 0.000E+00 1.000E+00 0.000E+00
                          16-    18 P  
                                         2.000E-01 0.000E+00 1.000E+00 0.000E+00
                          19-    23 D  
                                         6.200E+01 0.000E+00 0.000E+00 1.197E-02
                                         1.787E+01 0.000E+00 0.000E+00 7.321E-02
                                         6.274E+00 0.000E+00 0.000E+00 2.310E-01
                                         2.355E+00 0.000E+00 0.000E+00 3.991E-01
                          24-    28 D  
                                         8.417E-01 0.000E+00 0.000E+00 1.000E+00
                          29-    33 D  
                                         2.611E-01 0.000E+00 0.000E+00 1.000E+00
                          34-    40 F  
                                         1.198E+00 0.000E+00 0.000E+00 1.000E+00
   2 FE   0.000   5.129   5.129
   3 FE   0.000   0.000   0.000
   4 FE   5.129   0.000   5.129
   5 S    1.179  -1.179   3.950
                                161 S  
                                         6.070E+04 5.470E-04 0.000E+00 0.000E+00
                                         9.103E+03 4.230E-03 0.000E+00 0.000E+00
                                         2.071E+03 2.175E-02 0.000E+00 0.000E+00
                                         5.860E+02 8.510E-02 0.000E+00 0.000E+00
                                         1.906E+02 2.480E-01 0.000E+00 0.000E+00
                                         6.763E+01 4.670E-01 0.000E+00 0.000E+00
                                         2.513E+01 3.643E-01 0.000E+00 0.000E+00
                                162 S  
                                         1.126E+02 2.167E-02 0.000E+00 0.000E+00
                                         3.480E+01 9.360E-02 0.000E+00 0.000E+00
                                         6.512E+00-2.607E-01 0.000E+00 0.000E+00
                                163 S  
                                         3.240E+00 1.284E+00 0.000E+00 0.000E+00
                                         1.548E+00 6.604E-01 0.000E+00 0.000E+00
                                164 S  
                                         4.487E-01 1.000E+00 0.000E+00 0.000E+00
                                165 S  
                                         1.553E-01 1.000E+00 0.000E+00 0.000E+00
                         166-   168 P  
                                         5.644E+02 0.000E+00 2.480E-03 0.000E+00
                                         1.334E+02 0.000E+00 1.968E-02 0.000E+00
                                         4.247E+01 0.000E+00 8.998E-02 0.000E+00
                                         1.562E+01 0.000E+00 2.571E-01 0.000E+00
                                         6.109E+00 0.000E+00 4.352E-01 0.000E+00
                         169-   171 P  
                                         2.036E+00 0.000E+00 1.000E+00 0.000E+00
                         172-   174 P  
                                         4.338E-01 0.000E+00 1.000E+00 0.000E+00
                         175-   177 P  
                                         1.305E-01 0.000E+00 1.000E+00 0.000E+00
                         178-   182 D  
                                         4.107E-01 0.000E+00 0.000E+00 1.000E+00
   6 S    3.950   1.179  -1.179
   7 S   -3.950  -3.950  -3.950
   8 S   -1.179   3.950   1.179
   9 S   -1.179   1.179  -3.950
  10 S   -3.950  -1.179   1.179
  11 S    3.950   3.950   3.950
  12 S    1.179  -3.950  -1.179
 INFORMATION **** SET_MPP **** PCRYSTAL CALCULATION
 INFORMATION **** READM2 **** NEW DEFAULT: FOCK/KS MATRIX MIXING SET TO 30 %
 INFORMATION **** READM2 **** NEW DEFAULT: FULL DIRECT SCF MODE
 INFORMATION **** READM2 **** NEW DEFAULT: COULOMB BIPOLAR BUFFER SET TO 32 Mb
 INFORMATION **** READM2 **** NEW DEFAULT: EXCHANGE BIPOLAR BUFFER SET TO 32 Mb

 *******************************************************************************
 NEW DEFAULT: DFT INTEGRATION GRID INCREASED TO XLGRID
 NEW DEFAULT: DIIS ACCELERATOR ACTIVE
 USE KEYWORD NODIIS TO TURN IT OFF
 *******************************************************************************

 INFORMATION **** RDDFTP **** MAX N. OF POINTS ALLOWED IN A BATCH FOR NUMERICAL INTEGRATION         200
 INFORMATION **** TOLINTEG **** COULOMB AND EXCHANGE SERIES TOLERANCES MODIFIED
 INFORMATION **** TOLDEE **** SCF TOL ON TOTAL ENERGY SET TO          11
 INFORMATION **** EXCHSIZE **** EXCHANGE BIPOLAR BUFFER SIZE SET TO    12012489
 INFORMATION **** MAXCYCLE **** MAX NUMBER OF SCF CYCLES SET TO         150
 *******************************************************************************
 N. OF ATOMS PER CELL        12  COULOMB OVERLAP TOL         (T1) 10**   -7
 NUMBER OF SHELLS           136  COULOMB PENETRATION TOL     (T2) 10**   -7
 NUMBER OF AO               336  EXCHANGE OVERLAP TOL        (T3) 10**   -7
 N. OF ELECTRONS PER CELL   232  EXCHANGE PSEUDO OVP (F(G))  (T4) 10**   -9
 CORE ELECTRONS PER CELL    152  EXCHANGE PSEUDO OVP (P(G))  (T5) 10**  -30
 N. OF SYMMETRY OPERATORS    24  POLE ORDER IN MONO ZONE                  4
 *******************************************************************************
 TYPE OF CALCULATION :  UNRESTRICTED OPEN SHELL
 KOHN-SHAM HAMILTONIAN

 (EXCHANGE)[CORRELATION] FUNCTIONAL:(PERDEW-BURKE-ERNZERHOF)[PERDEW-BURKE-ERNZERHOF]


 HYBRID EXCHANGE - PERCENTAGE OF FOCK EXCHANGE    25.0000

 SPIN POLARIZED DFT SELECTED

 CAPPA:IS1  8;IS2  8;IS3  8; K PTS MONK NET  45; SYMMOPS:K SPACE  24;G SPACE  24

 *******************************************************************************
 MAX NUMBER OF SCF CYCLES     150  CONVERGENCE ON DELTAP        10**-21
 WEIGHT OF F(I) IN F(I+1)      30% CONVERGENCE ON ENERGY        10**-11
 SHRINK. FACT.(MONKH.)    8  8  8  NUMBER OF K POINTS IN THE IBZ     45
 SHRINKING FACTOR(GILAT NET)    8  NUMBER OF K POINTS(GILAT NET)     45
 *******************************************************************************
 *** K POINTS COORDINATES (OBLIQUE COORDINATES IN UNITS OF IS =  8)
   1-R(  0  0  0)   2-C(  1  0  0)   3-C(  2  0  0)   4-C(  3  0  0)
   5-R(  4  0  0)   6-C(  1  1  0)   7-C(  2  1  0)   8-C(  3  1  0)
   9-C(  4  1  0)  10-C(  1  2  0)  11-C(  2  2  0)  12-C(  3  2  0)
  13-C(  4  2  0)  14-C(  1  3  0)  15-C(  2  3  0)  16-C(  3  3  0)
  17-C(  4  3  0)  18-C(  1  4  0)  19-C(  2  4  0)  20-C(  3  4  0)
  21-R(  4  4  0)  22-C(  1  1  1)  23-C(  2  1  1)  24-C(  3  1  1)
  25-C(  4  1  1)  26-C(  2  2  1)  27-C(  3  2  1)  28-C(  4  2  1)
  29-C(  2  3  1)  30-C(  3  3  1)  31-C(  4  3  1)  32-C(  2  4  1)
  33-C(  3  4  1)  34-C(  4  4  1)  35-C(  2  2  2)  36-C(  3  2  2)
  37-C(  4  2  2)  38-C(  3  3  2)  39-C(  4  3  2)  40-C(  3  4  2)
  41-C(  4  4  2)  42-C(  3  3  3)  43-C(  4  3  3)  44-C(  4  4  3)
  45-R(  4  4  4)

 DIRECT LATTICE VECTORS COMPON. (A.U.)     RECIP. LATTICE VECTORS COMPON. (A.U.) 
        X            Y            Z              X            Y            Z
   10.2576224    0.0000000    0.0000000      0.6125382    0.0000000    0.0000000
    0.0000000   10.2576224    0.0000000      0.0000000    0.6125382    0.0000000
    0.0000000    0.0000000   10.2576224      0.0000000    0.0000000    0.6125382

 DISK SPACE FOR EIGENVECTORS (FTN 10)     9709056 REALS

 SYMMETRY ADAPTION OF THE BLOCH FUNCTIONS ENABLED
 TTTTTTTTTTTTTTTTTTTTTTTTTTTTTT gordsh1     TELAPSE        6.94 TCPU        4.93

 MATRIX SIZE: P(G) 2485728, F(G)  200388, P(G) IRR   58224, F(G) IRR   10635
 MAX G-VECTOR INDEX FOR 1- AND 2-ELECTRON INTEGRALS 359

 TTTTTTTTTTTTTTTTTTTTTTTTTTTTTT INPUT       TELAPSE        6.95 TCPU        4.94

 NEIGHBORS OF THE NON-EQUIVALENT ATOMS

 N = NUMBER OF NEIGHBORS AT DISTANCE R
    ATOM  N     R/ANG      R/AU   NEIGHBORS (ATOM LABELS AND CELL INDICES)
   1 FE   6     2.2687     4.2872    6 S    0 0 0    7 S    1 1 0    8 S    1 0 0
                                    10 S    1 1 0   11 S    0 0 0   12 S    0 1 0
   1 FE   6     3.4527     6.5247    6 S    0 1 0    7 S    1 1 1    8 S    0 0 0
                                    10 S    1 0 0   11 S    0 0-1   12 S    1 1 0
   1 FE   2     3.6200     6.8409    5 S    0 1 0    9 S    1 0 0
   1 FE  12     3.8382     7.2532    2 FE   0 0 0    2 FE   1 0 0    2 FE   0 0-1
                                     2 FE   1 0-1    3 FE   0 1 0    3 FE   0 0 0
                                     3 FE   1 1 0    3 FE   1 0 0    4 FE   0 0 0
                                     4 FE   0 0-1    4 FE   0 1 0    4 FE   0 1-1
   1 FE   6     4.4586     8.4255    5 S    0 0 0    5 S    1 1 0    5 S    0 1-1
                                     9 S    1 1 0    9 S    0 0 0    9 S    1 0 1
   1 FE   6     5.1627     9.7561    5 S    1 0 0    5 S    0 0-1    5 S    1 1-1
                                     9 S    0 1 0    9 S    1 1 1    9 S    0 0 1

   5 S    1     2.1616     4.0849    9 S    0 0 1
   5 S    3     2.2687     4.2872    2 FE   0-1 0    3 FE   0 0 0    4 FE   0 0 0
   5 S    6     3.0847     5.8292   10 S    0 0 0   10 S    1 0 0   11 S    0 0 0
                                    11 S    0-1 0   12 S    0 0 0   12 S    0 0 1
   5 S    6     3.3276     6.2882    6 S    0 0 0    6 S    0 0 1    7 S    1 0 1
                                     7 S    0 0 1    8 S    0 0 0    8 S    0-1 0
   5 S    3     3.4527     6.5247    2 FE   0 0 0    3 FE   0 0 1    4 FE  -1 0 0
   5 S    1     3.6200     6.8409    1 FE   0-1 0


 SYMMETRY ALLOWED ELASTIC DISTORTION 1
  0.5773503  0.0000000  0.0000000
  0.0000000  0.5773503  0.0000000
  0.0000000  0.0000000  0.5773503

 SYMMETRY ALLOWED INTERNAL DEGREE(S) OF FREEDOM:   1
 TTTTTTTTTTTTTTTTTTTTTTTTTTTTTT SYMM        TELAPSE        8.02 TCPU        6.00
 TTTTTTTTTTTTTTTTTTTTTTTTTTTTTT INT_SCREEN  TELAPSE        8.03 TCPU        6.01

 *******************************************************************************
 *                             OPTIMIZATION STARTS                             *
 *******************************************************************************
 RECLASIFICATION OF INDICES FOR INTEGRAL CALC ACCORDING TO DIFFERENT CRITERIA:
           FIXDELTE                  FIXDELTX              FIXDELTN
          0.10000000               0.80000000                 10
 *******************************************************************************

 *******************************************************************************
 COORDINATE AND CELL OPTIMIZATION - POINT    1

 DFT PARAMETERS

     ATOM       ELECTRONS   NET CHARGE   R(ANGSTROM)
   1  26  FE     26.0000      0.0000     1.26000000
   5  16  S      16.0000      0.0000     1.04000000

 SIZE OF GRID=      23266
 TTTTTTTTTTTTTTTTTTTTTTTTTTTTTT MAKE_GRID2  TELAPSE        9.95 TCPU        7.92
 BECKE WEIGHT FUNCTION
 RADSAFE =     2.00
 TOLERANCES - DENSITY:10**- 6; POTENTIAL:10**- 9; GRID WGT:10**-14

 RADIAL INTEGRATION  - INTERVALS (POINTS,UPPER LIMIT):            1( 99,  4.0*R)

 ANGULAR INTEGRATION - INTERVALS (ACCURACY LEVEL [N. POINTS] UPPER LIMIT):
  1(  6[ 146]   0.2)  2( 11[ 302]   0.5)  3( 14[ 590]   0.9)  4( 18[1454]   3.5)
  5( 14[ 590]9999.0)
 TTTTTTTTTTTTTTTTTTTTTTTTTTTTTT INT_CALC    TELAPSE        9.98 TCPU        7.95

 *******************************************************************************
 ICSD_CollCode316.cif                                                            
 CRYSTAL - SCF - TYPE OF CALCULATION :  UNRESTRICTED OPEN SHELL
 *******************************************************************************

 CAPPA:IS1  8;IS2  8;IS3  8; K PTS MONK NET  45; SYMMOPS:K SPACE  24;G SPACE  24

 TTTTTTTTTTTTTTTTTTTTTTTTTTTTTT SDIK        TELAPSE       10.08 TCPU        8.05

 AAAAAAAAAAAAAAAAAAAAAAAAAAAAAAAAAAAAAAAAAAAAAAAAAAAAAAAAAAAAAAAAAAAAAAAAAAAAAAA
         ATOMIC WAVEFUNCTION(S)


 NUCLEAR CHARGE 26.0  SYMMETRY SPECIES            S    P    D
 N. ELECTRONS   26.0  NUMBER OF PRIMITIVE GTOS   17   11    6
                      NUMBER OF CONTRACTED GTOS   6    4    3
                      NUMBER OF CLOSED SHELLS     4    2    0
                      OPEN SHELL OCCUPATION       0    0    6

  ZNUC  SCFIT    TOTAL HF ENERGY   KINETIC ENERGY   VIRIAL THEOREM             ACCURACY
  26.0    27    -1.262303928E+03  1.262527654E+03 -1.999822796E+00  4.7E-06

 NUCLEAR CHARGE 16.0  SYMMETRY SPECIES            S    P
 N. ELECTRONS   16.0  NUMBER OF PRIMITIVE GTOS   14    8
                      NUMBER OF CONTRACTED GTOS   5    4
                      NUMBER OF CLOSED SHELLS     3    1
                      OPEN SHELL OCCUPATION       0    4

  ZNUC  SCFIT    TOTAL HF ENERGY   KINETIC ENERGY   VIRIAL THEOREM             ACCURACY
  16.0    11    -3.974118762E+02  3.986854297E+02 -1.996805618E+00  4.0E-06

 AAAAAAAAAAAAAAAAAAAAAAAAAAAAAAAAAAAAAAAAAAAAAAAAAAAAAAAAAAAAAAAAAAAAAAAAAAAAAAA

 TTTTTTTTTTTTTTTTTTTTTTTTTTTTTT MOQGAD      TELAPSE       10.09 TCPU        8.05
 TTTTTTTTTTTTTTTTTTTTTTTTTTTTTT SHELLXN     TELAPSE       14.57 TCPU       12.49
 TTTTTTTTTTTTTTTTTTTTTTTTTTTTTT MONMO3      TELAPSE       14.58 TCPU       12.50
 NUMERICALLY INTEGRATED DENSITY    115.9999928821    115.9999928821
 TTTTTTTTTTTTTTTTTTTTTTTTTTTTTT NUMDFT      TELAPSE       14.92 TCPU       12.84
 CYC   0 ETOT(AU) -8.241044852086E+03 DETOT -8.24E+03 tst  0.00E+00 PX  1.00E+00
 TTTTTTTTTTTTTTTTTTTTTTTTTTTTTT DIIS        TELAPSE       14.94 TCPU       12.85
 TTTTTTTTTTTTTTTTTTTTTTTTTTTTTT FDIK        TELAPSE       15.04 TCPU       12.94

    ALPHA      ELECTRONS
 INSULATING STATE
 TOP OF VALENCE BANDS -    BAND    116; K    4; EIG -1.7719593E-01 AU
 TOP OF VALENCE BANDS -    BAND    116; K    1; EIG -1.8272755E-01 AU
 BOTTOM OF VIRTUAL BANDS - BAND    117; K    1; EIG -1.5156444E-01 AU
 INDIRECT ENERGY BAND GAP:   0.6975 eV

    BETA       ELECTRONS
 INSULATING STATE
 TOP OF VALENCE BANDS -    BAND    116; K    4; EIG -1.7719593E-01 AU
 TOP OF VALENCE BANDS -    BAND    116; K    1; EIG -1.8272755E-01 AU
 BOTTOM OF VIRTUAL BANDS - BAND    117; K    1; EIG -1.5156444E-01 AU
 INDIRECT ENERGY BAND GAP:   0.6975 eV
 TTTTTTTTTTTTTTTTTTTTTTTTTTTTTT PDIG        TELAPSE       15.14 TCPU       13.04
 TTTTTTTTTTTTTTTTTTTTTTTTTTTTTT MOQGAD      TELAPSE       15.15 TCPU       13.05
 TTTTTTTTTTTTTTTTTTTTTTTTTTTTTT SHELLXN     TELAPSE       19.90 TCPU       17.76
 TTTTTTTTTTTTTTTTTTTTTTTTTTTTTT MONMO3      TELAPSE       19.91 TCPU       17.77
 NUMERICALLY INTEGRATED DENSITY    115.9999919294    115.9999919294
 TTTTTTTTTTTTTTTTTTTTTTTTTTTTTT NUMDFT      TELAPSE       20.25 TCPU       18.10
 CYC   1 ETOT(AU) -8.238270920204E+03 DETOT  2.77E+00 tst  0.00E+00 PX  1.00E+00
 TTTTTTTTTTTTTTTTTTTTTTTTTTTTTT DIIS        TELAPSE       20.26 TCPU       18.12
 DIIS TEST: 0.32442E+01 AT SCF   CYCLE   1 - MIX   30 %
 TTTTTTTTTTTTTTTTTTTTTTTTTTTTTT FDIK        TELAPSE       20.36 TCPU       18.21

    ALPHA      ELECTRONS
 INSULATING STATE
 TOP OF VALENCE BANDS -    BAND    116; K   16; EIG -2.2454413E-01 AU
 TOP OF VALENCE BANDS -    BAND    116; K    1; EIG -2.5734455E-01 AU
 BOTTOM OF VIRTUAL BANDS - BAND    117; K   45; EIG -1.4205152E-01 AU
 INDIRECT ENERGY BAND GAP:   2.2447 eV
 BOTTOM OF VIRTUAL BANDS - BAND    117; K    1; EIG -1.4164202E-01 AU

    BETA       ELECTRONS
 INSULATING STATE
 TOP OF VALENCE BANDS -    BAND    116; K   16; EIG -2.2454413E-01 AU
 TOP OF VALENCE BANDS -    BAND    116; K    1; EIG -2.5734455E-01 AU
 BOTTOM OF VIRTUAL BANDS - BAND    117; K   45; EIG -1.4205152E-01 AU
 INDIRECT ENERGY BAND GAP:   2.2447 eV
 BOTTOM OF VIRTUAL BANDS - BAND    117; K    1; EIG -1.4164202E-01 AU
 TTTTTTTTTTTTTTTTTTTTTTTTTTTTTT PDIG        TELAPSE       20.46 TCPU       18.31
 TTTTTTTTTTTTTTTTTTTTTTTTTTTTTT MOQGAD      TELAPSE       20.46 TCPU       18.31
 TTTTTTTTTTTTTTTTTTTTTTTTTTTTTT SHELLXN     TELAPSE       25.23 TCPU       23.02
 TTTTTTTTTTTTTTTTTTTTTTTTTTTTTT MONMO3      TELAPSE       25.23 TCPU       23.03
 NUMERICALLY INTEGRATED DENSITY    115.9999911875    115.9999911875
 TTTTTTTTTTTTTTTTTTTTTTTTTTTTTT NUMDFT      TELAPSE       25.57 TCPU       23.37
 CYC   2 ETOT(AU) -8.237415012371E+03 DETOT  8.56E-01 tst  1.02E-02 PX  1.17E-01
 TTTTTTTTTTTTTTTTTTTTTTTTTTTTTT DIIS        TELAPSE       25.59 TCPU       23.38
 DIIS TEST: 0.36714E+02 AT SCF   CYCLE   2 - DIIS ACTIVE - HISTORY:     2 CYCLES
 TTTTTTTTTTTTTTTTTTTTTTTTTTTTTT FDIK        TELAPSE       25.69 TCPU       23.48

    ALPHA      ELECTRONS
 INSULATING STATE
 TOP OF VALENCE BANDS -    BAND    116; K    1; EIG -1.8607755E-01 AU
 BOTTOM OF VIRTUAL BANDS - BAND    117; K    1; EIG -9.2177313E-02 AU
 DIRECT ENERGY BAND GAP:   2.5552 eV

    BETA       ELECTRONS
 INSULATING STATE
 TOP OF VALENCE BANDS -    BAND    116; K    1; EIG -1.8607755E-01 AU
 BOTTOM OF VIRTUAL BANDS - BAND    117; K    1; EIG -9.2177313E-02 AU
 DIRECT ENERGY BAND GAP:   2.5552 eV
 TTTTTTTTTTTTTTTTTTTTTTTTTTTTTT PDIG        TELAPSE       25.79 TCPU       23.58
 TTTTTTTTTTTTTTTTTTTTTTTTTTTTTT MOQGAD      TELAPSE       25.79 TCPU       23.58
 TTTTTTTTTTTTTTTTTTTTTTTTTTTTTT SHELLXN     TELAPSE       30.50 TCPU       28.26
 TTTTTTTTTTTTTTTTTTTTTTTTTTTTTT MONMO3      TELAPSE       30.51 TCPU       28.26
 NUMERICALLY INTEGRATED DENSITY    115.9999915130    115.9999915130
 TTTTTTTTTTTTTTTTTTTTTTTTTTTTTT NUMDFT      TELAPSE       30.85 TCPU       28.60
 CYC   3 ETOT(AU) -8.238442370739E+03 DETOT -1.03E+00 tst  5.91E-03 PX  9.76E-02
 TTTTTTTTTTTTTTTTTTTTTTTTTTTTTT DIIS        TELAPSE       30.86 TCPU       28.61
 DIIS TEST: 0.79089E-01 AT SCF   CYCLE   3 - DIIS ACTIVE - HISTORY:     3 CYCLES
 TTTTTTTTTTTTTTTTTTTTTTTTTTTTTT FDIK        TELAPSE       30.96 TCPU       28.71

    ALPHA      ELECTRONS
 INSULATING STATE
 TOP OF VALENCE BANDS -    BAND    116; K    1; EIG -1.8679030E-01 AU
 BOTTOM OF VIRTUAL BANDS - BAND    117; K    1; EIG -7.5167694E-02 AU
 DIRECT ENERGY BAND GAP:   3.0374 eV

    BETA       ELECTRONS
 INSULATING STATE
 TOP OF VALENCE BANDS -    BAND    116; K    1; EIG -1.8679030E-01 AU
 BOTTOM OF VIRTUAL BANDS - BAND    117; K    1; EIG -7.5167694E-02 AU
 DIRECT ENERGY BAND GAP:   3.0374 eV
 TTTTTTTTTTTTTTTTTTTTTTTTTTTTTT PDIG        TELAPSE       31.06 TCPU       28.80
 TTTTTTTTTTTTTTTTTTTTTTTTTTTTTT MOQGAD      TELAPSE       31.06 TCPU       28.81
 TTTTTTTTTTTTTTTTTTTTTTTTTTTTTT SHELLXN     TELAPSE       35.78 TCPU       33.48
 TTTTTTTTTTTTTTTTTTTTTTTTTTTTTT MONMO3      TELAPSE       35.78 TCPU       33.49
 NUMERICALLY INTEGRATED DENSITY    115.9999914282    115.9999914282
 TTTTTTTTTTTTTTTTTTTTTTTTTTTTTT NUMDFT      TELAPSE       36.12 TCPU       33.82
 CYC   4 ETOT(AU) -8.238451852072E+03 DETOT -9.48E-03 tst  5.62E-04 PX  2.43E-02
 TTTTTTTTTTTTTTTTTTTTTTTTTTTTTT DIIS        TELAPSE       36.13 TCPU       33.84
 DIIS TEST: 0.64051E-01 AT SCF   CYCLE   4 - DIIS ACTIVE - HISTORY:     4 CYCLES
 TTTTTTTTTTTTTTTTTTTTTTTTTTTTTT FDIK        TELAPSE       36.23 TCPU       33.93

    ALPHA      ELECTRONS
 INSULATING STATE
 TOP OF VALENCE BANDS -    BAND    116; K    1; EIG -1.8547988E-01 AU
 BOTTOM OF VIRTUAL BANDS - BAND    117; K    1; EIG -7.2584951E-02 AU
 DIRECT ENERGY BAND GAP:   3.0720 eV

    BETA       ELECTRONS
 INSULATING STATE
 TOP OF VALENCE BANDS -    BAND    116; K    1; EIG -1.8547988E-01 AU
 BOTTOM OF VIRTUAL BANDS - BAND    117; K    1; EIG -7.2584951E-02 AU
 DIRECT ENERGY BAND GAP:   3.0720 eV
 TTTTTTTTTTTTTTTTTTTTTTTTTTTTTT PDIG        TELAPSE       36.33 TCPU       34.03
 TTTTTTTTTTTTTTTTTTTTTTTTTTTTTT MOQGAD      TELAPSE       36.33 TCPU       34.03
 TTTTTTTTTTTTTTTTTTTTTTTTTTTTTT SHELLXN     TELAPSE       41.03 TCPU       38.69
 TTTTTTTTTTTTTTTTTTTTTTTTTTTTTT MONMO3      TELAPSE       41.04 TCPU       38.70
 NUMERICALLY INTEGRATED DENSITY    115.9999914080    115.9999914080
 TTTTTTTTTTTTTTTTTTTTTTTTTTTTTT NUMDFT      TELAPSE       41.38 TCPU       39.03
 CYC   5 ETOT(AU) -8.238455594047E+03 DETOT -3.74E-03 tst  1.11E-04 PX  7.24E-03
 TTTTTTTTTTTTTTTTTTTTTTTTTTTTTT DIIS        TELAPSE       41.40 TCPU       39.05
 DIIS TEST: 0.17037E-02 AT SCF   CYCLE   5 - DIIS ACTIVE - HISTORY:     5 CYCLES
 TTTTTTTTTTTTTTTTTTTTTTTTTTTTTT FDIK        TELAPSE       41.50 TCPU       39.15

    ALPHA      ELECTRONS
 INSULATING STATE
 TOP OF VALENCE BANDS -    BAND    116; K    1; EIG -1.8549139E-01 AU
 BOTTOM OF VIRTUAL BANDS - BAND    117; K    1; EIG -7.1661411E-02 AU
 DIRECT ENERGY BAND GAP:   3.0975 eV

    BETA       ELECTRONS
 INSULATING STATE
 TOP OF VALENCE BANDS -    BAND    116; K    1; EIG -1.8549139E-01 AU
 BOTTOM OF VIRTUAL BANDS - BAND    117; K    1; EIG -7.1661411E-02 AU
 DIRECT ENERGY BAND GAP:   3.0975 eV
 TTTTTTTTTTTTTTTTTTTTTTTTTTTTTT PDIG        TELAPSE       41.60 TCPU       39.24
 TTTTTTTTTTTTTTTTTTTTTTTTTTTTTT MOQGAD      TELAPSE       41.60 TCPU       39.24
 TTTTTTTTTTTTTTTTTTTTTTTTTTTTTT SHELLXN     TELAPSE       46.31 TCPU       43.90
 TTTTTTTTTTTTTTTTTTTTTTTTTTTTTT MONMO3      TELAPSE       46.31 TCPU       43.91
 NUMERICALLY INTEGRATED DENSITY    115.9999914052    115.9999914052
 TTTTTTTTTTTTTTTTTTTTTTTTTTTTTT NUMDFT      TELAPSE       46.65 TCPU       44.24
 CYC   6 ETOT(AU) -8.238455726238E+03 DETOT -1.32E-04 tst  7.88E-06 PX  1.62E-03
 TTTTTTTTTTTTTTTTTTTTTTTTTTTTTT DIIS        TELAPSE       46.69 TCPU       44.28
 DIIS TEST: 0.17681E-04 AT SCF   CYCLE   6 - DIIS ACTIVE - HISTORY:     6 CYCLES
 TTTTTTTTTTTTTTTTTTTTTTTTTTTTTT FDIK        TELAPSE       46.79 TCPU       44.38

    ALPHA      ELECTRONS
 INSULATING STATE
 TOP OF VALENCE BANDS -    BAND    116; K    1; EIG -1.8537891E-01 AU
 BOTTOM OF VIRTUAL BANDS - BAND    117; K    1; EIG -7.1494863E-02 AU
 DIRECT ENERGY BAND GAP:   3.0989 eV

    BETA       ELECTRONS
 INSULATING STATE
 TOP OF VALENCE BANDS -    BAND    116; K    1; EIG -1.8537891E-01 AU
 BOTTOM OF VIRTUAL BANDS - BAND    117; K    1; EIG -7.1494863E-02 AU
 DIRECT ENERGY BAND GAP:   3.0989 eV
 TTTTTTTTTTTTTTTTTTTTTTTTTTTTTT PDIG        TELAPSE       46.89 TCPU       44.47
 TTTTTTTTTTTTTTTTTTTTTTTTTTTTTT MOQGAD      TELAPSE       46.89 TCPU       44.48
 TTTTTTTTTTTTTTTTTTTTTTTTTTTTTT SHELLXN     TELAPSE       51.61 TCPU       49.15
 TTTTTTTTTTTTTTTTTTTTTTTTTTTTTT MONMO3      TELAPSE       51.62 TCPU       49.16
 NUMERICALLY INTEGRATED DENSITY    115.9999914029    115.9999914029
 TTTTTTTTTTTTTTTTTTTTTTTTTTTTTT NUMDFT      TELAPSE       51.96 TCPU       49.49
 CYC   7 ETOT(AU) -8.238455725238E+03 DETOT  1.00E-06 tst  8.07E-08 PX  3.13E-04
 TTTTTTTTTTTTTTTTTTTTTTTTTTTTTT DIIS        TELAPSE       51.97 TCPU       49.51
 DIIS TEST: 0.66716E-05 AT SCF   CYCLE   7 - DIIS ACTIVE - HISTORY:     7 CYCLES
 TTTTTTTTTTTTTTTTTTTTTTTTTTTTTT FDIK        TELAPSE       52.09 TCPU       49.60

    ALPHA      ELECTRONS
 INSULATING STATE
 TOP OF VALENCE BANDS -    BAND    116; K    1; EIG -1.8531245E-01 AU
 BOTTOM OF VIRTUAL BANDS - BAND    117; K    1; EIG -7.1516767E-02 AU
 DIRECT ENERGY BAND GAP:   3.0965 eV

    BETA       ELECTRONS
 INSULATING STATE
 TOP OF VALENCE BANDS -    BAND    116; K    1; EIG -1.8531245E-01 AU
 BOTTOM OF VIRTUAL BANDS - BAND    117; K    1; EIG -7.1516767E-02 AU
 DIRECT ENERGY BAND GAP:   3.0965 eV
 TTTTTTTTTTTTTTTTTTTTTTTTTTTTTT PDIG        TELAPSE       52.18 TCPU       49.70
 TTTTTTTTTTTTTTTTTTTTTTTTTTTTTT MOQGAD      TELAPSE       52.19 TCPU       49.70
 TTTTTTTTTTTTTTTTTTTTTTTTTTTTTT SHELLXN     TELAPSE       56.91 TCPU       54.37
 TTTTTTTTTTTTTTTTTTTTTTTTTTTTTT MONMO3      TELAPSE       56.92 TCPU       54.38
 NUMERICALLY INTEGRATED DENSITY    115.9999914032    115.9999914032
 TTTTTTTTTTTTTTTTTTTTTTTTTTTTTT NUMDFT      TELAPSE       57.26 TCPU       54.72
 CYC   8 ETOT(AU) -8.238455725004E+03 DETOT  2.34E-07 tst  1.38E-08 PX  1.95E-04
 TTTTTTTTTTTTTTTTTTTTTTTTTTTTTT DIIS        TELAPSE       57.27 TCPU       54.73
 DIIS TEST: 0.93148E-06 AT SCF   CYCLE   8 - DIIS ACTIVE - HISTORY:     8 CYCLES
 TTTTTTTTTTTTTTTTTTTTTTTTTTTTTT FDIK        TELAPSE       57.38 TCPU       54.83

    ALPHA      ELECTRONS
 INSULATING STATE
 TOP OF VALENCE BANDS -    BAND    116; K    1; EIG -1.8527544E-01 AU
 BOTTOM OF VIRTUAL BANDS - BAND    117; K    1; EIG -7.1509373E-02 AU
 DIRECT ENERGY BAND GAP:   3.0957 eV

    BETA       ELECTRONS
 INSULATING STATE
 TOP OF VALENCE BANDS -    BAND    116; K    1; EIG -1.8527544E-01 AU
 BOTTOM OF VIRTUAL BANDS - BAND    117; K    1; EIG -7.1509373E-02 AU
 DIRECT ENERGY BAND GAP:   3.0957 eV
 TTTTTTTTTTTTTTTTTTTTTTTTTTTTTT PDIG        TELAPSE       57.50 TCPU       54.95
 TTTTTTTTTTTTTTTTTTTTTTTTTTTTTT MOQGAD      TELAPSE       57.50 TCPU       54.96
 TTTTTTTTTTTTTTTTTTTTTTTTTTTTTT SHELLXN     TELAPSE       62.23 TCPU       59.64
 TTTTTTTTTTTTTTTTTTTTTTTTTTTTTT MONMO3      TELAPSE       62.23 TCPU       59.64
 NUMERICALLY INTEGRATED DENSITY    115.9999914027    115.9999914027
 TTTTTTTTTTTTTTTTTTTTTTTTTTTTTT NUMDFT      TELAPSE       62.57 TCPU       59.98
 CYC   9 ETOT(AU) -8.238455724385E+03 DETOT  6.19E-07 tst  2.00E-08 PX  1.88E-04
 TTTTTTTTTTTTTTTTTTTTTTTTTTTTTT DIIS        TELAPSE       62.59 TCPU       59.99
 DIIS TEST: 0.23246E-06 AT SCF   CYCLE   9 - DIIS ACTIVE - HISTORY:     9 CYCLES
 TTTTTTTTTTTTTTTTTTTTTTTTTTTTTT FDIK        TELAPSE       62.69 TCPU       60.09

    ALPHA      ELECTRONS
 INSULATING STATE
 TOP OF VALENCE BANDS -    BAND    116; K    1; EIG -1.8526657E-01 AU
 BOTTOM OF VIRTUAL BANDS - BAND    117; K    1; EIG -7.1512903E-02 AU
 DIRECT ENERGY BAND GAP:   3.0954 eV

    BETA       ELECTRONS
 INSULATING STATE
 TOP OF VALENCE BANDS -    BAND    116; K    1; EIG -1.8526657E-01 AU
 BOTTOM OF VIRTUAL BANDS - BAND    117; K    1; EIG -7.1512903E-02 AU
 DIRECT ENERGY BAND GAP:   3.0954 eV
 TTTTTTTTTTTTTTTTTTTTTTTTTTTTTT PDIG        TELAPSE       62.79 TCPU       60.19
 TTTTTTTTTTTTTTTTTTTTTTTTTTTTTT MOQGAD      TELAPSE       62.79 TCPU       60.19
 TTTTTTTTTTTTTTTTTTTTTTTTTTTTTT SHELLXN     TELAPSE       67.52 TCPU       64.88
 TTTTTTTTTTTTTTTTTTTTTTTTTTTTTT MONMO3      TELAPSE       67.53 TCPU       64.89
 NUMERICALLY INTEGRATED DENSITY    115.9999914026    115.9999914026
 TTTTTTTTTTTTTTTTTTTTTTTTTTTTTT NUMDFT      TELAPSE       67.87 TCPU       65.23
 CYC  10 ETOT(AU) -8.238455724260E+03 DETOT  1.25E-07 tst  2.78E-09 PX  6.90E-05
 TTTTTTTTTTTTTTTTTTTTTTTTTTTTTT DIIS        TELAPSE       67.88 TCPU       65.24
 DIIS TEST: 0.10500E-07 AT SCF   CYCLE  10 - DIIS ACTIVE - HISTORY:    10 CYCLES
 TTTTTTTTTTTTTTTTTTTTTTTTTTTTTT FDIK        TELAPSE       67.98 TCPU       65.33

    ALPHA      ELECTRONS
 INSULATING STATE
 TOP OF VALENCE BANDS -    BAND    116; K    1; EIG -1.8526149E-01 AU
 BOTTOM OF VIRTUAL BANDS - BAND    117; K    1; EIG -7.1514551E-02 AU
 DIRECT ENERGY BAND GAP:   3.0952 eV

    BETA       ELECTRONS
 INSULATING STATE
 TOP OF VALENCE BANDS -    BAND    116; K    1; EIG -1.8526149E-01 AU
 BOTTOM OF VIRTUAL BANDS - BAND    117; K    1; EIG -7.1514551E-02 AU
 DIRECT ENERGY BAND GAP:   3.0952 eV
 TTTTTTTTTTTTTTTTTTTTTTTTTTTTTT PDIG        TELAPSE       68.14 TCPU       65.49
 TTTTTTTTTTTTTTTTTTTTTTTTTTTTTT MOQGAD      TELAPSE       68.14 TCPU       65.49
 TTTTTTTTTTTTTTTTTTTTTTTTTTTTTT SHELLXN     TELAPSE       72.85 TCPU       70.16
 TTTTTTTTTTTTTTTTTTTTTTTTTTTTTT MONMO3      TELAPSE       72.86 TCPU       70.16
 NUMERICALLY INTEGRATED DENSITY    115.9999914025    115.9999914025
 TTTTTTTTTTTTTTTTTTTTTTTTTTTTTT NUMDFT      TELAPSE       73.20 TCPU       70.50
 CYC  11 ETOT(AU) -8.238455724160E+03 DETOT  1.00E-07 tst  3.36E-10 PX  2.54E-05
 TTTTTTTTTTTTTTTTTTTTTTTTTTTTTT DIIS        TELAPSE       73.21 TCPU       70.51
 DIIS TEST: 0.16328E-08 AT SCF   CYCLE  11 - DIIS ACTIVE - HISTORY:    11 CYCLES
 TTTTTTTTTTTTTTTTTTTTTTTTTTTTTT FDIK        TELAPSE       73.31 TCPU       70.61

    ALPHA      ELECTRONS
 INSULATING STATE
 TOP OF VALENCE BANDS -    BAND    116; K    1; EIG -1.8526117E-01 AU
 BOTTOM OF VIRTUAL BANDS - BAND    117; K    1; EIG -7.1514110E-02 AU
 DIRECT ENERGY BAND GAP:   3.0952 eV

    BETA       ELECTRONS
 INSULATING STATE
 TOP OF VALENCE BANDS -    BAND    116; K    1; EIG -1.8526117E-01 AU
 BOTTOM OF VIRTUAL BANDS - BAND    117; K    1; EIG -7.1514110E-02 AU
 DIRECT ENERGY BAND GAP:   3.0952 eV
 TTTTTTTTTTTTTTTTTTTTTTTTTTTTTT PDIG        TELAPSE       73.41 TCPU       70.71
 TTTTTTTTTTTTTTTTTTTTTTTTTTTTTT MOQGAD      TELAPSE       73.42 TCPU       70.71
 TTTTTTTTTTTTTTTTTTTTTTTTTTTTTT SHELLXN     TELAPSE       78.13 TCPU       75.38
 TTTTTTTTTTTTTTTTTTTTTTTTTTTTTT MONMO3      TELAPSE       78.13 TCPU       75.38
 NUMERICALLY INTEGRATED DENSITY    115.9999914025    115.9999914025
 TTTTTTTTTTTTTTTTTTTTTTTTTTTTTT NUMDFT      TELAPSE       78.47 TCPU       75.72
 CYC  12 ETOT(AU) -8.238455724136E+03 DETOT  2.39E-08 tst  5.88E-11 PX  7.22E-06
 TTTTTTTTTTTTTTTTTTTTTTTTTTTTTT DIIS        TELAPSE       78.49 TCPU       75.73
 DIIS TEST: 0.15056E-09 AT SCF   CYCLE  12 - DIIS ACTIVE - HISTORY:    12 CYCLES
 TTTTTTTTTTTTTTTTTTTTTTTTTTTTTT FDIK        TELAPSE       78.59 TCPU       75.83

    ALPHA      ELECTRONS
 INSULATING STATE
 TOP OF VALENCE BANDS -    BAND    116; K    1; EIG -1.8526123E-01 AU
 BOTTOM OF VIRTUAL BANDS - BAND    117; K    1; EIG -7.1514097E-02 AU
 DIRECT ENERGY BAND GAP:   3.0952 eV

    BETA       ELECTRONS
 INSULATING STATE
 TOP OF VALENCE BANDS -    BAND    116; K    1; EIG -1.8526123E-01 AU
 BOTTOM OF VIRTUAL BANDS - BAND    117; K    1; EIG -7.1514097E-02 AU
 DIRECT ENERGY BAND GAP:   3.0952 eV
 TTTTTTTTTTTTTTTTTTTTTTTTTTTTTT PDIG        TELAPSE       78.69 TCPU       75.93
 TTTTTTTTTTTTTTTTTTTTTTTTTTTTTT MOQGAD      TELAPSE       78.69 TCPU       75.93
 TTTTTTTTTTTTTTTTTTTTTTTTTTTTTT SHELLXN     TELAPSE       83.41 TCPU       80.62
 TTTTTTTTTTTTTTTTTTTTTTTTTTTTTT MONMO3      TELAPSE       83.42 TCPU       80.62
 NUMERICALLY INTEGRATED DENSITY    115.9999914025    115.9999914025
 TTTTTTTTTTTTTTTTTTTTTTTTTTTTTT NUMDFT      TELAPSE       83.76 TCPU       80.96
 CYC  13 ETOT(AU) -8.238455724137E+03 DETOT -9.20E-10 tst  2.77E-13 PX  5.30E-07
 TTTTTTTTTTTTTTTTTTTTTTTTTTTTTT DIIS        TELAPSE       83.77 TCPU       80.97
 DIIS TEST: 0.11448E-12 AT SCF   CYCLE  13 - DIIS ACTIVE - HISTORY:    13 CYCLES
 TTTTTTTTTTTTTTTTTTTTTTTTTTTTTT FDIK        TELAPSE       83.87 TCPU       81.07

    ALPHA      ELECTRONS
 INSULATING STATE
 TOP OF VALENCE BANDS -    BAND    116; K    1; EIG -1.8526122E-01 AU
 BOTTOM OF VIRTUAL BANDS - BAND    117; K    1; EIG -7.1514098E-02 AU
 DIRECT ENERGY BAND GAP:   3.0952 eV

    BETA       ELECTRONS
 INSULATING STATE
 TOP OF VALENCE BANDS -    BAND    116; K    1; EIG -1.8526122E-01 AU
 BOTTOM OF VIRTUAL BANDS - BAND    117; K    1; EIG -7.1514098E-02 AU
 DIRECT ENERGY BAND GAP:   3.0952 eV
 TTTTTTTTTTTTTTTTTTTTTTTTTTTTTT PDIG        TELAPSE       83.97 TCPU       81.16
 TTTTTTTTTTTTTTTTTTTTTTTTTTTTTT MOQGAD      TELAPSE       83.97 TCPU       81.17
 TTTTTTTTTTTTTTTTTTTTTTTTTTTTTT SHELLXN     TELAPSE       88.69 TCPU       85.85
 TTTTTTTTTTTTTTTTTTTTTTTTTTTTTT MONMO3      TELAPSE       88.70 TCPU       85.85
 NUMERICALLY INTEGRATED DENSITY    115.9999914025    115.9999914025
 TTTTTTTTTTTTTTTTTTTTTTTTTTTTTT NUMDFT      TELAPSE       89.04 TCPU       86.19
 CYC  14 ETOT(AU) -8.238455724137E+03 DETOT  5.82E-11 tst  8.94E-16 PX  3.03E-08
 TTTTTTTTTTTTTTTTTTTTTTTTTTTTTT DIIS        TELAPSE       89.05 TCPU       86.20
 DIIS TEST: 0.14998E-14 AT SCF   CYCLE  14 - DIIS ACTIVE - HISTORY:    14 CYCLES
 TTTTTTTTTTTTTTTTTTTTTTTTTTTTTT FDIK        TELAPSE       89.15 TCPU       86.30

    ALPHA      ELECTRONS
 INSULATING STATE
 TOP OF VALENCE BANDS -    BAND    116; K    1; EIG -1.8526122E-01 AU
 BOTTOM OF VIRTUAL BANDS - BAND    117; K    1; EIG -7.1514099E-02 AU
 DIRECT ENERGY BAND GAP:   3.0952 eV

    BETA       ELECTRONS
 INSULATING STATE
 TOP OF VALENCE BANDS -    BAND    116; K    1; EIG -1.8526122E-01 AU
 BOTTOM OF VIRTUAL BANDS - BAND    117; K    1; EIG -7.1514099E-02 AU
 DIRECT ENERGY BAND GAP:   3.0952 eV
 TTTTTTTTTTTTTTTTTTTTTTTTTTTTTT PDIG        TELAPSE       89.25 TCPU       86.39
 TTTTTTTTTTTTTTTTTTTTTTTTTTTTTT MOQGAD      TELAPSE       89.25 TCPU       86.40
 TTTTTTTTTTTTTTTTTTTTTTTTTTTTTT SHELLXN     TELAPSE       93.97 TCPU       91.08
 TTTTTTTTTTTTTTTTTTTTTTTTTTTTTT MONMO3      TELAPSE       93.98 TCPU       91.09
 NUMERICALLY INTEGRATED DENSITY    115.9999914025    115.9999914025
 TTTTTTTTTTTTTTTTTTTTTTTTTTTTTT NUMDFT      TELAPSE       94.32 TCPU       91.42
 CYC  15 ETOT(AU) -8.238455724137E+03 DETOT -1.82E-11 tst  1.18E-17 PX  3.64E-09
 TTTTTTTTTTTTTTTTTTTTTTTTTTTTTT DIIS        TELAPSE       94.33 TCPU       91.43
 DIIS TEST: 0.31454E-16 AT SCF   CYCLE  15 - DIIS ACTIVE - HISTORY:    12 CYCLES
 TTTTTTTTTTTTTTTTTTTTTTTTTTTTTT FDIK        TELAPSE       94.43 TCPU       91.53

    ALPHA      ELECTRONS
 INSULATING STATE
 TOP OF VALENCE BANDS -    BAND    116; K    1; EIG -1.8526122E-01 AU
 BOTTOM OF VIRTUAL BANDS - BAND    117; K    1; EIG -7.1514099E-02 AU
 DIRECT ENERGY BAND GAP:   3.0952 eV

    BETA       ELECTRONS
 INSULATING STATE
 TOP OF VALENCE BANDS -    BAND    116; K    1; EIG -1.8526122E-01 AU
 BOTTOM OF VIRTUAL BANDS - BAND    117; K    1; EIG -7.1514099E-02 AU
 DIRECT ENERGY BAND GAP:   3.0952 eV
 TTTTTTTTTTTTTTTTTTTTTTTTTTTTTT PDIG        TELAPSE       94.53 TCPU       91.62
 TTTTTTTTTTTTTTTTTTTTTTTTTTTTTT MOQGAD      TELAPSE       94.53 TCPU       91.63
 TTTTTTTTTTTTTTTTTTTTTTTTTTTTTT SHELLXN     TELAPSE       99.25 TCPU       96.30
 TTTTTTTTTTTTTTTTTTTTTTTTTTTTTT MONMO3      TELAPSE       99.26 TCPU       96.31
 NUMERICALLY INTEGRATED DENSITY    115.9999914025    115.9999914025
 TTTTTTTTTTTTTTTTTTTTTTTTTTTTTT NUMDFT      TELAPSE       99.60 TCPU       96.65
 CYC  16 ETOT(AU) -8.238455724137E+03 DETOT  3.46E-11 tst  4.92E-20 PX  2.29E-10
 TTTTTTTTTTTTTTTTTTTTTTTTTTTTTT DIIS        TELAPSE       99.61 TCPU       96.66
 DIIS TEST: 0.51853E-18 AT SCF   CYCLE  16 - DIIS ACTIVE - HISTORY:    12 CYCLES
 TTTTTTTTTTTTTTTTTTTTTTTTTTTTTT FDIK        TELAPSE       99.71 TCPU       96.76

    ALPHA      ELECTRONS
 INSULATING STATE
 TOP OF VALENCE BANDS -    BAND    116; K    1; EIG -1.8526122E-01 AU
 BOTTOM OF VIRTUAL BANDS - BAND    117; K    1; EIG -7.1514099E-02 AU
 DIRECT ENERGY BAND GAP:   3.0952 eV

    BETA       ELECTRONS
 INSULATING STATE
 TOP OF VALENCE BANDS -    BAND    116; K    1; EIG -1.8526122E-01 AU
 BOTTOM OF VIRTUAL BANDS - BAND    117; K    1; EIG -7.1514099E-02 AU
 DIRECT ENERGY BAND GAP:   3.0952 eV
 TTTTTTTTTTTTTTTTTTTTTTTTTTTTTT PDIG        TELAPSE       99.81 TCPU       96.85
 TTTTTTTTTTTTTTTTTTTTTTTTTTTTTT MOQGAD      TELAPSE       99.81 TCPU       96.86
 TTTTTTTTTTTTTTTTTTTTTTTTTTTTTT SHELLXN     TELAPSE      104.52 TCPU      101.52
 TTTTTTTTTTTTTTTTTTTTTTTTTTTTTT MONMO3      TELAPSE      104.53 TCPU      101.53
 NUMERICALLY INTEGRATED DENSITY    115.9999914025    115.9999914025
 TTTTTTTTTTTTTTTTTTTTTTTTTTTTTT NUMDFT      TELAPSE      104.87 TCPU      101.87
 CYC  17 ETOT(AU) -8.238455724137E+03 DETOT -9.09E-12 tst  1.81E-22 PX  1.33E-10
 TTTTTTTTTTTTTTTTTTTTTTTTTTTTTT DIIS        TELAPSE      104.90 TCPU      101.90
 DIIS TEST: 0.23374E-20 AT SCF   CYCLE  17 - DIIS ACTIVE - HISTORY:    12 CYCLES
 TTTTTTTTTTTTTTTTTTTTTTTTTTTTTT FDIK        TELAPSE      105.01 TCPU      102.00

    ALPHA      ELECTRONS
 INSULATING STATE
 TOP OF VALENCE BANDS -    BAND    116; K    1; EIG -1.8526122E-01 AU
 BOTTOM OF VIRTUAL BANDS - BAND    117; K    1; EIG -7.1514099E-02 AU
 DIRECT ENERGY BAND GAP:   3.0952 eV

    BETA       ELECTRONS
 INSULATING STATE
 TOP OF VALENCE BANDS -    BAND    116; K    1; EIG -1.8526122E-01 AU
 BOTTOM OF VIRTUAL BANDS - BAND    117; K    1; EIG -7.1514099E-02 AU
 DIRECT ENERGY BAND GAP:   3.0952 eV
 TTTTTTTTTTTTTTTTTTTTTTTTTTTTTT PDIG        TELAPSE      105.10 TCPU      102.09
 TTTTTTTTTTTTTTTTTTTTTTTTTTTTTT MOQGAD      TELAPSE      105.11 TCPU      102.10
 TTTTTTTTTTTTTTTTTTTTTTTTTTTTTT SHELLXN     TELAPSE      109.81 TCPU      106.77
 ::: PSEUDO TOTAL   ENERGY                        -7.9158135904843E+03
 ::: VIRIAL COEFFICIENT                            1.0197759500073E+00
 TTTTTTTTTTTTTTTTTTTTTTTTTTTTTT MONMO3      TELAPSE      109.81 TCPU      106.77
 NUMERICALLY INTEGRATED DENSITY    115.9999914025    115.9999914025
 EXCHANGE ENERGY: -0.312592964521E+03  CORRELATION ENERGY: -0.100491691316E+02
 TTTTTTTTTTTTTTTTTTTTTTTTTTTTTT NUMDFT      TELAPSE      110.16 TCPU      107.11
 CYC  18 ETOT(AU) -8.238455724137E+03 DETOT -9.09E-12 tst  2.83E-23 PX  1.33E-10

 == SCF ENDED - CONVERGENCE ON ENERGY      E(AU) -8.2384557241368E+03 CYCLES  18


 ENERGY EXPRESSION=HARTREE+FOCK EXCH*0.25000+(PBE        EXCH)*0.75000+PBE        CORR


 TOTAL ENERGY(DFT)(AU)( 18) -8.2384557241368E+03 DE-9.1E-12 tester 2.8E-23
 TTTTTTTTTTTTTTTTTTTTTTTTTTTTTT EDFT        TELAPSE      110.16 TCPU      107.11

 *******************************************************************************
 *                             FORCE CALCULATION                               *
 *******************************************************************************

 TTTTTTTTTTTTTTTTTTTTTTTTTTTTTT NUMDFG      TELAPSE      110.71 TCPU      107.65
 INFORMATION **** EXCPOG **** EXCH. BIPO BUFFER LENGTH (WORDS) =     4754052
 INFORMATION **** GENPOG **** BIPO BUFFER LENGTH (WORDS) =     2232800
 TTTTTTTTTTTTTTTTTTTTTTTTTTTTTT SHELXG      TELAPSE      141.93 TCPU      138.67

 CARTESIAN FORCES IN HARTREE/BOHR (ANALYTICAL)
   ATOM                     X                   Y                   Z
   1  26            -1.243449787580E-14 -1.036208156317E-14 -2.634929311777E-14
   2  26             1.894780628694E-14 -4.440892098501E-15  3.404683942184E-14
   3  26             1.213843840257E-14  2.309263891220E-14 -1.095420050963E-14
   4  26            -2.116825233619E-14  1.258252761242E-14  1.539509260814E-14
   5  16            -4.533872931884E-03  4.533872931896E-03  4.533872931919E-03
   6  16             4.533872931900E-03 -4.533872931884E-03  4.533872931868E-03
   7  16            -4.533872931932E-03 -4.533872931940E-03 -4.533872931919E-03
   8  16             4.533872931913E-03  4.533872931918E-03 -4.533872931892E-03
   9  16             4.533872931907E-03 -4.533872931883E-03 -4.533872931908E-03
  10  16            -4.533872931925E-03  4.533872931890E-03 -4.533872931880E-03
  11  16             4.533872931918E-03  4.533872931927E-03  4.533872931934E-03
  12  16            -4.533872931890E-03 -4.533872931944E-03  4.533872931864E-03

 RESULTANT FORCE     4.208439152720E-15  1.873501354055E-16 -1.831867990632E-15

 ATOMIC PART

 SYMMETRY ALLOWED FORCES (ANALYTICAL) (DIRECTION, FORCE)

    1 -2.2211350E-02

 CELL PART

 GRADIENT WITH RESPECT TO THE CELL PARAMETER IN HARTREE/BOHR
ORDER: -D/DA1X, -D/DA1Y, -D/DA1Z
       -D/DA2X, -D/DA2Y, -D/DA2Z
       -D/DA3X, -D/DA3Y, -D/DA3Z
  0.216384706521E-01 -0.129522588347E-13 -0.457181253417E-14
 -0.112949596211E-13  0.216384706521E-01 -0.829154115430E-14
 -0.395579360949E-14 -0.221799134614E-14  0.216384706521E-01

STRESS TENSOR, IN HARTREE/BOHR^3:
ORDER: 11 12 13
       21 22 23
       31 32 33
 -0.205652098085E-03  0.107347334348E-15  0.375958758112E-16
  0.123098311665E-15 -0.205652098085E-03  0.210797972371E-16
  0.434505217498E-16  0.788028351057E-16 -0.205652098085E-03

PRESSURE FROM THE STRESS TENSOR,
IN HARTREE/BOHR^3:  0.20565E-03
PRESSURE IN GIGAPASCAL:  0.6050E+01
CONVERSION FACTOR: 1 HARTREE/BOHR^3= 29421 GIGAPASCAL
WHEN USING VALUES FOR BOHR RADIUS AND HARTREE
FROM IUPAC WEBSITE, APRIL 2009
ENTHALPY: -8.2382337648750E+03

 SYMMETRY ALLOWED FORCES (ANALYTICAL) (DIRECTION, FORCE)

    1  3.5011959E-02
 TTTTTTTTTTTTTTTTTTTTTTTTTTTTTT TOTGRA      TELAPSE      142.14 TCPU      138.88
 INFORMATION **** optc001 **** GEOMETRY OUTPUT FILE
 CLASSICAL MODEL (SCHLEGEL) USED AS INITIAL HESSIAN MATRIX
 REFERENCE GEOMETRY DEFINED

 MAX GRADIENT      0.035012  THRESHOLD              0.000045 CONVERGED NO
 RMS GRADIENT      0.029319  THRESHOLD              0.000030 CONVERGED NO

 GRADIENT NORM     0.041463  GRADIENT THRESHOLD     0.500000

 EIGENVALUES OF THE ESTIMATED HESSIAN
  0.1604      0.3601    

 INITIAL TRUST RADIUS    0.5000000000E+00

 PREDICTED ENERGY CHANGE    -0.487E-02

 INITIAL DISPLACEMENTS
 -0.081184  0.226890
 TTTTTTTTTTTTTTTTTTTTTTTTTTTTTT OPTI        TELAPSE      142.72 TCPU      139.40

 OPTOPTOPTOPTOPTOPTOPTOPTOPTOPTOPTOPTOPTOPTOPTOPTOPTOPTOPTOPTOPTOPTOPTOPTOPTOPT

 - INFORMATION ON SCF MOVED TO SCFOUT.LOG
 GEOMETRY OPTIMIZATION INFORMATION STORED IN OPTINFO.DAT

 OPTOPTOPTOPTOPTOPTOPTOPTOPTOPTOPTOPTOPTOPTOPTOPTOPTOPTOPTOPTOPTOPTOPTOPTOPTOPT
 *******************************************************************************
 COORDINATE AND CELL OPTIMIZATION - POINT    2
 *******************************************************************************
 LATTICE PARAMETERS (ANGSTROMS AND DEGREES) - BOHR = 0.5291772083 ANGSTROM
 PRIMITIVE CELL - CENTRING CODE 1/0 VOLUME=   165.727597 - DENSITY  4.805 g/cm^3
         A              B              C           ALPHA      BETA       GAMMA 
     5.49285681     5.49285681     5.49285681    90.000000  90.000000  90.000000
 *******************************************************************************
 ATOMS IN THE ASYMMETRIC UNIT    2 - ATOMS IN THE UNIT CELL:   12
     ATOM                 X/A                 Y/B                 Z/C    
 *******************************************************************************
      1 T  26 FE    5.000000000000E-01  5.000000000000E-01  0.000000000000E+00
      2 F  26 FE    0.000000000000E+00  5.000000000000E-01  5.000000000000E-01
      3 F  26 FE    0.000000000000E+00  0.000000000000E+00  0.000000000000E+00
      4 F  26 FE    5.000000000000E-01  0.000000000000E+00  5.000000000000E-01
      5 T  16 S     1.133444551154E-01 -1.133444551154E-01  3.866555448846E-01
      6 F  16 S     3.866555448846E-01  1.133444551154E-01 -1.133444551154E-01
      7 F  16 S    -3.866555448846E-01 -3.866555448846E-01 -3.866555448846E-01
      8 F  16 S    -1.133444551154E-01  3.866555448846E-01  1.133444551154E-01
      9 F  16 S    -1.133444551154E-01  1.133444551154E-01 -3.866555448846E-01
     10 F  16 S    -3.866555448846E-01 -1.133444551154E-01  1.133444551154E-01
     11 F  16 S     3.866555448846E-01  3.866555448846E-01  3.866555448846E-01
     12 F  16 S     1.133444551154E-01 -3.866555448846E-01 -1.133444551154E-01

 T = ATOM BELONGING TO THE ASYMMETRIC UNIT

 TOTAL ENERGY(DFT)(AU)( 16) -8.2384618843966E+03     DE (AU)   -6.160E-03

 UPDATED TRUST RADIUS     0.500E+00

 SYMMETRY ALLOWED FORCES  (COORDINATE, FORCE)

    1 -1.1557747E-02    2  7.4995833E-03

 GRADIENT NORM     0.013778  GRADIENT THRESHOLD     0.500000

 EIGENVALUES OF THE ESTIMATED HESSIAN
  0.1223      0.3443    

 PREDICTED ENERGY CHANGE    -0.585E-03

 MAX GRADIENT      0.011558  THRESHOLD              0.000045 CONVERGED NO
 RMS GRADIENT      0.009742  THRESHOLD              0.000030 CONVERGED NO
 MAX DISPLAC.      0.075803  THRESHOLD              0.000180 CONVERGED NO
 RMS DISPLAC.      0.065014  THRESHOLD              0.000120 CONVERGED NO
 TTTTTTTTTTTTTTTTTTTTTTTTTTTTTT OPTI        TELAPSE      266.02 TCPU      261.62
 *******************************************************************************
 COORDINATE AND CELL OPTIMIZATION - POINT    3
 *******************************************************************************
 LATTICE PARAMETERS (ANGSTROMS AND DEGREES) - BOHR = 0.5291772083 ANGSTROM
 PRIMITIVE CELL - CENTRING CODE 1/0 VOLUME=   167.717156 - DENSITY  4.748 g/cm^3
         A              B              C           ALPHA      BETA       GAMMA 
     5.51475000     5.51475000     5.51475000    90.000000  90.000000  90.000000
 *******************************************************************************
 ATOMS IN THE ASYMMETRIC UNIT    2 - ATOMS IN THE UNIT CELL:   12
     ATOM                 X/A                 Y/B                 Z/C    
 *******************************************************************************
      1 T  26 FE   -5.000000000000E-01 -5.000000000000E-01  0.000000000000E+00
      2 F  26 FE    0.000000000000E+00 -5.000000000000E-01 -5.000000000000E-01
      3 F  26 FE    0.000000000000E+00  0.000000000000E+00  0.000000000000E+00
      4 F  26 FE   -5.000000000000E-01  0.000000000000E+00 -5.000000000000E-01
      5 T  16 S     1.123089803930E-01 -1.123089803930E-01  3.876910196070E-01
      6 F  16 S     3.876910196070E-01  1.123089803930E-01 -1.123089803930E-01
      7 F  16 S    -3.876910196070E-01 -3.876910196070E-01 -3.876910196070E-01
      8 F  16 S    -1.123089803930E-01  3.876910196070E-01  1.123089803930E-01
      9 F  16 S    -1.123089803930E-01  1.123089803930E-01 -3.876910196070E-01
     10 F  16 S    -3.876910196070E-01 -1.123089803930E-01  1.123089803930E-01
     11 F  16 S     3.876910196070E-01  3.876910196070E-01  3.876910196070E-01
     12 F  16 S     1.123089803930E-01 -3.876910196070E-01 -1.123089803930E-01

 T = ATOM BELONGING TO THE ASYMMETRIC UNIT

 TOTAL ENERGY(DFT)(AU)( 14) -8.2384625478724E+03     DE (AU)   -6.635E-04

 UPDATED TRUST RADIUS     0.500E+00

 SYMMETRY ALLOWED FORCES  (COORDINATE, FORCE)

    1 -1.1346258E-03    2  3.6321567E-04

 GRADIENT NORM     0.001191  GRADIENT THRESHOLD     0.500000

 EIGENVALUES OF THE ESTIMATED HESSIAN
  0.1163      0.3354    

 PREDICTED ENERGY CHANGE    -0.368E-05

 MAX GRADIENT      0.001135  THRESHOLD              0.000045 CONVERGED NO
 RMS GRADIENT      0.000842  THRESHOLD              0.000030 CONVERGED NO
 MAX DISPLAC.      0.004994  THRESHOLD              0.000180 CONVERGED NO
 RMS DISPLAC.      0.004941  THRESHOLD              0.000120 CONVERGED NO
 TTTTTTTTTTTTTTTTTTTTTTTTTTTTTT OPTI        TELAPSE      378.68 TCPU      373.32
 *******************************************************************************
 COORDINATE AND CELL OPTIMIZATION - POINT    4
 *******************************************************************************
 LATTICE PARAMETERS (ANGSTROMS AND DEGREES) - BOHR = 0.5291772083 ANGSTROM
 PRIMITIVE CELL - CENTRING CODE 1/0 VOLUME=   167.849319 - DENSITY  4.744 g/cm^3
         A              B              C           ALPHA      BETA       GAMMA 
     5.51619819     5.51619819     5.51619819    90.000000  90.000000  90.000000
 *******************************************************************************
 ATOMS IN THE ASYMMETRIC UNIT    2 - ATOMS IN THE UNIT CELL:   12
     ATOM                 X/A                 Y/B                 Z/C    
 *******************************************************************************
      1 T  26 FE   -5.000000000000E-01  5.000000000000E-01  0.000000000000E+00
      2 F  26 FE    0.000000000000E+00  5.000000000000E-01  5.000000000000E-01
      3 F  26 FE    0.000000000000E+00  0.000000000000E+00  0.000000000000E+00
      4 F  26 FE   -5.000000000000E-01  0.000000000000E+00  5.000000000000E-01
      5 T  16 S     1.122117423869E-01 -1.122117423869E-01  3.877882576131E-01
      6 F  16 S     3.877882576131E-01  1.122117423869E-01 -1.122117423869E-01
      7 F  16 S    -3.877882576131E-01 -3.877882576131E-01 -3.877882576131E-01
      8 F  16 S    -1.122117423869E-01  3.877882576131E-01  1.122117423869E-01
      9 F  16 S    -1.122117423869E-01  1.122117423869E-01 -3.877882576131E-01
     10 F  16 S    -3.877882576131E-01 -1.122117423869E-01  1.122117423869E-01
     11 F  16 S     3.877882576131E-01  3.877882576131E-01  3.877882576131E-01
     12 F  16 S     1.122117423869E-01 -3.877882576131E-01 -1.122117423869E-01

 T = ATOM BELONGING TO THE ASYMMETRIC UNIT

 TOTAL ENERGY(DFT)(AU)( 10) -8.2384625532247E+03     DE (AU)   -5.352E-06

 UPDATED TRUST RADIUS     0.500E+00

 SYMMETRY ALLOWED FORCES  (COORDINATE, FORCE)

    1 -1.4172907E-05    2 -8.6102963E-06

 GRADIENT NORM     0.000017  GRADIENT THRESHOLD     0.500000

 EIGENVALUES OF THE ESTIMATED HESSIAN
  0.1172      0.3317    

 PREDICTED ENERGY CHANGE    -0.437E-09

 MAX GRADIENT      0.000014  THRESHOLD              0.000045 CONVERGED YES
 RMS GRADIENT      0.000012  THRESHOLD              0.000030 CONVERGED YES
 MAX DISPLAC.      0.000041  THRESHOLD              0.000180 CONVERGED YES
 RMS DISPLAC.      0.000039  THRESHOLD              0.000120 CONVERGED YES

 CONVERGENCE TESTS SATISFIED AFTER   4 ENERGY AND GRADIENT CALCULATIONS
 +++++++++++++++++++++++++++++++++++++++++++++++++++++++++++++++++++++++++++++++
 FINALRUN OPTION: RE-STARTING OPTIMIZATION
 +++++++++++++++++++++++++++++++++++++++++++++++++++++++++++++++++++++++++++++++
 TTTTTTTTTTTTTTTTTTTTTTTTTTTTTT OPTI        TELAPSE      469.92 TCPU      463.73
 *******************************************************************************
 COORDINATE AND CELL OPTIMIZATION - POINT    5
 *******************************************************************************
 LATTICE PARAMETERS (ANGSTROMS AND DEGREES) - BOHR = 0.5291772083 ANGSTROM
 PRIMITIVE CELL - CENTRING CODE 1/0 VOLUME=   167.848239 - DENSITY  4.744 g/cm^3
         A              B              C           ALPHA      BETA       GAMMA 
     5.51618636     5.51618636     5.51618636    90.000000  90.000000  90.000000
 *******************************************************************************
 ATOMS IN THE ASYMMETRIC UNIT    2 - ATOMS IN THE UNIT CELL:   12
     ATOM                 X/A                 Y/B                 Z/C    
 *******************************************************************************
      1 T  26 FE   -5.000000000000E-01 -5.000000000000E-01  0.000000000000E+00
      2 F  26 FE    0.000000000000E+00 -5.000000000000E-01 -5.000000000000E-01
      3 F  26 FE    0.000000000000E+00  0.000000000000E+00  0.000000000000E+00
      4 F  26 FE   -5.000000000000E-01  0.000000000000E+00 -5.000000000000E-01
      5 T  16 S     1.122110069047E-01 -1.122110069047E-01  3.877889930953E-01
      6 F  16 S     3.877889930953E-01  1.122110069047E-01 -1.122110069047E-01
      7 F  16 S    -3.877889930953E-01 -3.877889930953E-01 -3.877889930953E-01
      8 F  16 S    -1.122110069047E-01  3.877889930953E-01  1.122110069047E-01
      9 F  16 S    -1.122110069047E-01  1.122110069047E-01 -3.877889930953E-01
     10 F  16 S    -3.877889930953E-01 -1.122110069047E-01  1.122110069047E-01
     11 F  16 S     3.877889930953E-01  3.877889930953E-01  3.877889930953E-01
     12 F  16 S     1.122110069047E-01 -3.877889930953E-01 -1.122110069047E-01

 T = ATOM BELONGING TO THE ASYMMETRIC UNIT

 REFERENCE GEOMETRY WILL BE CHANGED

 TOTAL ENERGY(DFT)(AU)( 16) -8.2384631880456E+03     DE (AU)   -6.348E-04

 SYMMETRY ALLOWED FORCES  (COORDINATE, FORCE)

    1 -1.0197099E-05    2 -2.2516277E-04

 GRADIENT NORM     0.000225  GRADIENT THRESHOLD     0.500000

 HESSIAN UPDATE SKIPPED

 EIGENVALUES OF THE ESTIMATED HESSIAN
  0.1172      0.3317    

 PREDICTED ENERGY CHANGE    -0.194E-06

 MAX GRADIENT      0.000225  THRESHOLD              0.000045 CONVERGED NO
 RMS GRADIENT      0.000159  THRESHOLD              0.000030 CONVERGED NO
 MAX DISPLAC.      0.001739  THRESHOLD              0.000180 CONVERGED NO
 RMS DISPLAC.      0.001259  THRESHOLD              0.000120 CONVERGED NO
 TTTTTTTTTTTTTTTTTTTTTTTTTTTTTT OPTI        TELAPSE      582.58 TCPU      575.35
 *******************************************************************************
 COORDINATE AND CELL OPTIMIZATION - POINT    6
 *******************************************************************************
 LATTICE PARAMETERS (ANGSTROMS AND DEGREES) - BOHR = 0.5291772083 ANGSTROM
 PRIMITIVE CELL - CENTRING CODE 1/0 VOLUME=   167.802204 - DENSITY  4.745 g/cm^3
         A              B              C           ALPHA      BETA       GAMMA 
     5.51568201     5.51568201     5.51568201    90.000000  90.000000  90.000000
 *******************************************************************************
 ATOMS IN THE ASYMMETRIC UNIT    2 - ATOMS IN THE UNIT CELL:   12
     ATOM                 X/A                 Y/B                 Z/C    
 *******************************************************************************
      1 T  26 FE   -5.000000000000E-01 -5.000000000000E-01  0.000000000000E+00
      2 F  26 FE    0.000000000000E+00 -5.000000000000E-01 -5.000000000000E-01
      3 F  26 FE    0.000000000000E+00  0.000000000000E+00  0.000000000000E+00
      4 F  26 FE   -5.000000000000E-01  0.000000000000E+00 -5.000000000000E-01
      5 T  16 S     1.122186108546E-01 -1.122186108546E-01  3.877813891454E-01
      6 F  16 S     3.877813891454E-01  1.122186108546E-01 -1.122186108546E-01
      7 F  16 S    -3.877813891454E-01 -3.877813891454E-01 -3.877813891454E-01
      8 F  16 S    -1.122186108546E-01  3.877813891454E-01  1.122186108546E-01
      9 F  16 S    -1.122186108546E-01  1.122186108546E-01 -3.877813891454E-01
     10 F  16 S    -3.877813891454E-01 -1.122186108546E-01  1.122186108546E-01
     11 F  16 S     3.877813891454E-01  3.877813891454E-01  3.877813891454E-01
     12 F  16 S     1.122186108546E-01 -3.877813891454E-01 -1.122186108546E-01

 T = ATOM BELONGING TO THE ASYMMETRIC UNIT

 TOTAL ENERGY(DFT)(AU)( 17) -8.2384631881323E+03     DE (AU)   -8.675E-08

 UPDATED TRUST RADIUS     0.500E+00

 SYMMETRY ALLOWED FORCES  (COORDINATE, FORCE)

    1 -2.2976751E-05    2 -2.2693971E-05

 GRADIENT NORM     0.000032  GRADIENT THRESHOLD     0.500000

 EIGENVALUES OF THE ESTIMATED HESSIAN
  0.1112      0.3220    

 PREDICTED ENERGY CHANGE    -0.227E-08

 MAX GRADIENT      0.000023  THRESHOLD              0.000045 CONVERGED YES
 RMS GRADIENT      0.000023  THRESHOLD              0.000030 CONVERGED YES
 MAX DISPLAC.      0.000154  THRESHOLD              0.000180 CONVERGED YES
 RMS DISPLAC.      0.000114  THRESHOLD              0.000120 CONVERGED YES

 CONVERGENCE TESTS SATISFIED AFTER   6 ENERGY AND GRADIENT CALCULATIONS
 +++++++++++++++++++++++++++++++++++++++++++++++++++++++++++++++++++++++++++++++
 FINALRUN OPTION: RE-STARTING OPTIMIZATION
 +++++++++++++++++++++++++++++++++++++++++++++++++++++++++++++++++++++++++++++++
 TTTTTTTTTTTTTTTTTTTTTTTTTTTTTT OPTI        TELAPSE      699.99 TCPU      691.75
 *******************************************************************************
 COORDINATE AND CELL OPTIMIZATION - POINT    7
 *******************************************************************************
 LATTICE PARAMETERS (ANGSTROMS AND DEGREES) - BOHR = 0.5291772083 ANGSTROM
 PRIMITIVE CELL - CENTRING CODE 1/0 VOLUME=   167.798117 - DENSITY  4.745 g/cm^3
         A              B              C           ALPHA      BETA       GAMMA 
     5.51563722     5.51563722     5.51563722    90.000000  90.000000  90.000000
 *******************************************************************************
 ATOMS IN THE ASYMMETRIC UNIT    2 - ATOMS IN THE UNIT CELL:   12
     ATOM                 X/A                 Y/B                 Z/C    
 *******************************************************************************
      1 T  26 FE    5.000000000000E-01  5.000000000000E-01  0.000000000000E+00
      2 F  26 FE    0.000000000000E+00  5.000000000000E-01  5.000000000000E-01
      3 F  26 FE    0.000000000000E+00  0.000000000000E+00  0.000000000000E+00
      4 F  26 FE    5.000000000000E-01  0.000000000000E+00  5.000000000000E-01
      5 T  16 S     1.122177058609E-01 -1.122177058609E-01  3.877822941391E-01
      6 F  16 S     3.877822941391E-01  1.122177058609E-01 -1.122177058609E-01
      7 F  16 S    -3.877822941391E-01 -3.877822941391E-01 -3.877822941391E-01
      8 F  16 S    -1.122177058609E-01  3.877822941391E-01  1.122177058609E-01
      9 F  16 S    -1.122177058609E-01  1.122177058609E-01 -3.877822941391E-01
     10 F  16 S    -3.877822941391E-01 -1.122177058609E-01  1.122177058609E-01
     11 F  16 S     3.877822941391E-01  3.877822941391E-01  3.877822941391E-01
     12 F  16 S     1.122177058609E-01 -3.877822941391E-01 -1.122177058609E-01

 T = ATOM BELONGING TO THE ASYMMETRIC UNIT

 REFERENCE GEOMETRY WILL BE CHANGED

 TOTAL ENERGY(DFT)(AU)( 12) -8.2384631903502E+03     DE (AU)   -2.218E-06

 SYMMETRY ALLOWED FORCES  (COORDINATE, FORCE)

    1 -7.4024724E-07    2  6.4387690E-07

 GRADIENT NORM     0.000001  GRADIENT THRESHOLD     0.500000

 HESSIAN UPDATE SKIPPED

 EIGENVALUES OF THE ESTIMATED HESSIAN
  0.1112      0.3220    

 PREDICTED ENERGY CHANGE    -0.354E-11

 MAX GRADIENT      0.000001  THRESHOLD              0.000045 CONVERGED YES
 RMS GRADIENT      0.000001  THRESHOLD              0.000030 CONVERGED YES
 MAX DISPLAC.      0.000007  THRESHOLD              0.000180 CONVERGED YES
 RMS DISPLAC.      0.000005  THRESHOLD              0.000120 CONVERGED YES

 CONVERGENCE TESTS SATISFIED AFTER   7 ENERGY AND GRADIENT CALCULATIONS

 ******************************************************************
 * OPT END - CONVERGED * E(AU):  -8.238463190350E+03  POINTS    7 *
 ******************************************************************

   ALPHA BAND GAP:                3.5497  eV 
   BETA BAND GAP:                 3.5497  eV 

 EIGENVECTORS IN FORTRAN UNIT 10

 NEIGHBORS OF THE NON-EQUIVALENT ATOMS

 N = NUMBER OF NEIGHBORS AT DISTANCE R
    ATOM  N     R/ANG      R/AU   NEIGHBORS (ATOM LABELS AND CELL INDICES)
   1 FE   6     2.3111     4.3673    6 S    0 0 0    7 S    1 1 0    8 S    1 0 0
                                    10 S    1 1 0   11 S    0 0 0   12 S    0 1 0
   1 FE   6     3.4884     6.5921    6 S    0 1 0    7 S    1 1 1    8 S    0 0 0
                                    10 S    1 0 0   11 S    0 0-1   12 S    1 1 0
   1 FE   2     3.7046     7.0007    5 S    0 1 0    9 S    1 0 0
   1 FE  12     3.9001     7.3702    2 FE   0 0 0    2 FE   1 0 0    2 FE   0 0-1
                                     2 FE   1 0-1    3 FE   0 1 0    3 FE   0 0 0
                                     3 FE   1 1 0    3 FE   1 0 0    4 FE   0 0 0
                                     4 FE   0 0-1    4 FE   0 1 0    4 FE   0 1-1
   1 FE   6     4.5334     8.5670    5 S    0 0 0    5 S    1 1 0    5 S    0 1-1
                                     9 S    1 1 0    9 S    0 0 0    9 S    1 0 1
   1 FE   6     5.2326     9.8881    5 S    1 0 0    5 S    0 0-1    5 S    1 1-1
                                     9 S    0 1 0    9 S    1 1 1    9 S    0 0 1

   5 S    1     2.1441     4.0518    9 S    0 0 1
   5 S    3     2.3111     4.3673    2 FE   0-1 0    3 FE   0 0 0    4 FE   0 0 0
   5 S    6     3.1489     5.9506   10 S    0 0 0   10 S    1 0 0   11 S    0 0 0
                                    11 S    0-1 0   12 S    0 0 0   12 S    0 0 1
   5 S    6     3.3835     6.3939    6 S    0 0 0    6 S    0 0 1    7 S    1 0 1
                                     7 S    0 0 1    8 S    0 0 0    8 S    0-1 0
   5 S    3     3.4884     6.5921    2 FE   0 0 0    3 FE   0 0 1    4 FE  -1 0 0
   5 S    1     3.7046     7.0007    1 FE   0-1 0


 FINAL OPTIMIZED GEOMETRY - DIMENSIONALITY OF THE SYSTEM      3
 (NON PERIODIC DIRECTION: LATTICE PARAMETER FORMALLY SET TO 500)
 *******************************************************************************
 LATTICE PARAMETERS (ANGSTROMS AND DEGREES) - BOHR = 0.5291772083 ANGSTROM
 PRIMITIVE CELL - CENTRING CODE 1/0 VOLUME=   167.798117 - DENSITY  4.745 g/cm^3
         A              B              C           ALPHA      BETA       GAMMA 
     5.51563722     5.51563722     5.51563722    90.000000  90.000000  90.000000
 *******************************************************************************
 ATOMS IN THE ASYMMETRIC UNIT    2 - ATOMS IN THE UNIT CELL:   12
     ATOM                 X/A                 Y/B                 Z/C    
 *******************************************************************************
      1 T  26 FE    5.000000000000E-01  5.000000000000E-01  0.000000000000E+00
      2 F  26 FE    0.000000000000E+00  5.000000000000E-01  5.000000000000E-01
      3 F  26 FE    0.000000000000E+00  0.000000000000E+00  0.000000000000E+00
      4 F  26 FE    5.000000000000E-01  0.000000000000E+00  5.000000000000E-01
      5 T  16 S     1.122177058609E-01 -1.122177058609E-01  3.877822941391E-01
      6 F  16 S     3.877822941391E-01  1.122177058609E-01 -1.122177058609E-01
      7 F  16 S    -3.877822941391E-01 -3.877822941391E-01 -3.877822941391E-01
      8 F  16 S    -1.122177058609E-01  3.877822941391E-01  1.122177058609E-01
      9 F  16 S    -1.122177058609E-01  1.122177058609E-01 -3.877822941391E-01
     10 F  16 S    -3.877822941391E-01 -1.122177058609E-01  1.122177058609E-01
     11 F  16 S     3.877822941391E-01  3.877822941391E-01  3.877822941391E-01
     12 F  16 S     1.122177058609E-01 -3.877822941391E-01 -1.122177058609E-01

 T = ATOM BELONGING TO THE ASYMMETRIC UNIT
 INFORMATION **** fort.34 **** GEOMETRY OUTPUT FILE

 DIRECT LATTICE VECTORS CARTESIAN COMPONENTS (ANGSTROM)
          X                    Y                    Z
   0.551563722453E+01   0.000000000000E+00   0.000000000000E+00
   0.000000000000E+00   0.551563722453E+01   0.000000000000E+00
   0.000000000000E+00   0.000000000000E+00   0.551563722453E+01


 CARTESIAN COORDINATES - PRIMITIVE CELL
 *******************************************************************************
 *      ATOM          X(ANGSTROM)         Y(ANGSTROM)         Z(ANGSTROM)
 *******************************************************************************
    1    26 FE    2.757818612264E+00  2.757818612264E+00  0.000000000000E+00
    2    26 FE    0.000000000000E+00  2.757818612264E+00  2.757818612264E+00
    3    26 FE    0.000000000000E+00  0.000000000000E+00  0.000000000000E+00
    4    26 FE    2.757818612264E+00  0.000000000000E+00  2.757818612264E+00
    5    16 S     6.189521556972E-01 -6.189521556972E-01  2.138866456566E+00
    6    16 S     2.138866456566E+00  6.189521556972E-01 -6.189521556972E-01
    7    16 S    -2.138866456566E+00 -2.138866456566E+00 -2.138866456566E+00
    8    16 S    -6.189521556972E-01  2.138866456566E+00  6.189521556972E-01
    9    16 S    -6.189521556972E-01  6.189521556972E-01 -2.138866456566E+00
   10    16 S    -2.138866456566E+00 -6.189521556972E-01  6.189521556972E-01
   11    16 S     2.138866456566E+00  2.138866456566E+00  2.138866456566E+00
   12    16 S     6.189521556972E-01 -2.138866456566E+00 -6.189521556972E-01

 DFT PARAMETERS

     ATOM       ELECTRONS   NET CHARGE   R(ANGSTROM)
   1  26  FE     26.0000      0.0000     1.26000000
   5  16  S      16.0000      0.0000     1.04000000

 SIZE OF GRID=      23697
 TTTTTTTTTTTTTTTTTTTTTTTTTTTTTT MAKE_GRID2  TELAPSE      794.61 TCPU      785.57
 BECKE WEIGHT FUNCTION
 RADSAFE =     2.00
 TOLERANCES - DENSITY:10**- 6; POTENTIAL:10**- 9; GRID WGT:10**-14

 RADIAL INTEGRATION  - INTERVALS (POINTS,UPPER LIMIT):            1( 99,  4.0*R)

 ANGULAR INTEGRATION - INTERVALS (ACCURACY LEVEL [N. POINTS] UPPER LIMIT):
  1(  6[ 146]   0.2)  2( 11[ 302]   0.5)  3( 14[ 590]   0.9)  4( 18[1454]   3.5)
  5( 14[ 590]9999.0)
 EEEEEEEEEE INT_CALC TERMINATION  DATE 29 05 2023 TIME 18:13:29.0

 *******************************************************************************
 ICSD_CollCode316.cif                                                            
 CRYSTAL - SCF - TYPE OF CALCULATION :  UNRESTRICTED OPEN SHELL
 *******************************************************************************

 CAPPA:IS1  8;IS2  8;IS3  8; K PTS MONK NET  45; SYMMOPS:K SPACE  24;G SPACE  24

 TTTTTTTTTTTTTTTTTTTTTTTTTTTTTT SDIK        TELAPSE      794.65 TCPU      785.61

 INFORMATION FROM INTEGRAL EVALUATION

 RESTART FROM A PREVIOUS DENSITY MATRIX - DEP ACTIVE
 NUMBER OF COUPLE SETS (NEW, OLD, FOUND):     657     657     657
 NUMBER OF IRREDUCIBLE G VECTORS        :    8986    8986    8986
 TTTTTTTTTTTTTTTTTTTTTTTTTTTTTT MOQGAD      TELAPSE      794.67 TCPU      785.63
 TTTTTTTTTTTTTTTTTTTTTTTTTTTTTT SHELLXN     TELAPSE      798.92 TCPU      789.85
 TTTTTTTTTTTTTTTTTTTTTTTTTTTTTT MONMO3      TELAPSE      798.93 TCPU      789.86
[...]

    MODES    FREQUENCIES          I_xx    I_xy    I_xz    I_yy    I_yz    I_zz
  ----------------------------------------------------------------------------
   17-  19      354.9888 (Fg )    0.00    0.97    0.97    0.00    0.97    0.00
   20-  21      359.9182 (Eg )  427.06    0.00    0.00  427.06    0.00  427.06
   22-  24      365.6591 (Fg )    0.00    1.57    1.57    0.00    1.57    0.00
   33-  33      479.3139 (Ag ) 1000.00    0.00    0.00 1000.00    0.00 1000.00
   34-  36      509.6355 (Fg )    0.00   90.98   90.98    0.00   90.98    0.00

 <RAMAN><RAMAN><RAMAN><RAMAN><RAMAN><RAMAN><RAMAN><RAMAN><RAMAN><RAMAN><RAMAN>
 <RAMAN><RAMAN><RAMAN><RAMAN><RAMAN><RAMAN><RAMAN><RAMAN><RAMAN><RAMAN><RAMAN>


 NORMAL MODES NORMALIZED TO CLASSICAL AMPLITUDES (IN BOHR)

 FREQ(CM**-1)      0.00      0.00      0.00    214.06    214.18    214.18

 AT.   1 FE X    -0.0000    0.0457   -0.0000   -0.0232   -0.0007    0.0002
            Y     0.0000   -0.0000    0.0457    0.0232   -0.0378   -0.0007
            Z     0.0457   -0.0000    0.0000    0.0232    0.0002    0.0378
 AT.   2 FE X     0.0000    0.0457   -0.0000    0.0232    0.0007    0.0002
            Y    -0.0000   -0.0000    0.0457   -0.0232    0.0378   -0.0007
            Z     0.0457    0.0000   -0.0000    0.0232    0.0002   -0.0378
 AT.   3 FE X     0.0000    0.0457    0.0000   -0.0232    0.0007    0.0002
            Y     0.0000    0.0000    0.0457   -0.0232   -0.0378    0.0007
            Z     0.0457    0.0000    0.0000   -0.0232    0.0002   -0.0378
 AT.   4 FE X    -0.0000    0.0457    0.0000    0.0232   -0.0007    0.0002
            Y    -0.0000    0.0000    0.0457    0.0232    0.0378    0.0007
            Z     0.0457   -0.0000   -0.0000   -0.0232    0.0002    0.0378
 AT.   5 S  X     0.0000    0.0457    0.0000    0.0162    0.0005   -0.0002
            Y    -0.0000    0.0000    0.0457   -0.0162    0.0308    0.0005
            Z     0.0457    0.0000   -0.0000   -0.0162   -0.0002   -0.0308
 AT.   6 S  X    -0.0000    0.0457    0.0000   -0.0162   -0.0005   -0.0002
            Y     0.0000    0.0000    0.0457    0.0162   -0.0308    0.0005
            Z     0.0457   -0.0000    0.0000   -0.0162   -0.0002    0.0308
 AT.   7 S  X    -0.0000    0.0457   -0.0000    0.0162   -0.0005   -0.0002
            Y    -0.0000   -0.0000    0.0457    0.0162    0.0308   -0.0005
            Z     0.0457   -0.0000   -0.0000    0.0162   -0.0002    0.0308
 AT.   8 S  X     0.0000    0.0457   -0.0000   -0.0162    0.0005   -0.0002
            Y     0.0000   -0.0000    0.0457   -0.0162   -0.0308   -0.0005
            Z     0.0457    0.0000    0.0000    0.0162   -0.0002   -0.0308
 AT.   9 S  X     0.0000    0.0457    0.0000    0.0162    0.0005   -0.0002
            Y    -0.0000    0.0000    0.0457   -0.0162    0.0308    0.0005
            Z     0.0457    0.0000   -0.0000   -0.0162   -0.0002   -0.0308
 AT.  10 S  X    -0.0000    0.0457    0.0000   -0.0162   -0.0005   -0.0002
            Y     0.0000    0.0000    0.0457    0.0162   -0.0308    0.0005
            Z     0.0457   -0.0000    0.0000   -0.0162   -0.0002    0.0308
 AT.  11 S  X    -0.0000    0.0457   -0.0000    0.0162   -0.0005   -0.0002
            Y    -0.0000   -0.0000    0.0457    0.0162    0.0308   -0.0005
            Z     0.0457   -0.0000   -0.0000    0.0162   -0.0002    0.0308
 AT.  12 S  X     0.0000    0.0457   -0.0000   -0.0162    0.0005   -0.0002
            Y     0.0000   -0.0000    0.0457   -0.0162   -0.0308   -0.0005
            Z     0.0457    0.0000    0.0000    0.0162   -0.0002   -0.0308

 FREQ(CM**-1)    214.18    234.46    234.46    290.31    290.31    290.31

 AT.   1 FE X     0.0378    0.0278   -0.0135   -0.0415    0.0012    0.0044
            Y     0.0002    0.0256    0.0174   -0.0044   -0.0415    0.0012
            Z     0.0007    0.0022   -0.0308    0.0012    0.0044    0.0415
 AT.   2 FE X     0.0378   -0.0278    0.0135    0.0415    0.0012    0.0044
            Y     0.0002   -0.0256   -0.0174    0.0044   -0.0415    0.0012
            Z    -0.0007    0.0022   -0.0308    0.0012   -0.0044   -0.0415
 AT.   3 FE X    -0.0378    0.0278   -0.0135    0.0415    0.0012   -0.0044
            Y     0.0002   -0.0256   -0.0174   -0.0044    0.0415    0.0012
            Z     0.0007   -0.0022    0.0308    0.0012   -0.0044    0.0415
 AT.   4 FE X    -0.0378   -0.0278    0.0135   -0.0415    0.0012   -0.0044
            Y     0.0002    0.0256    0.0174    0.0044    0.0415    0.0012
            Z    -0.0007   -0.0022    0.0308    0.0012    0.0044   -0.0415
 AT.   5 S  X    -0.0308   -0.0189    0.0121    0.0078   -0.0011    0.0057
            Y    -0.0002   -0.0199   -0.0103   -0.0057    0.0078   -0.0011
            Z    -0.0005    0.0010    0.0224   -0.0011    0.0057   -0.0078
 AT.   6 S  X    -0.0308    0.0189   -0.0121   -0.0078   -0.0011    0.0057
            Y    -0.0002    0.0199    0.0103    0.0057    0.0078   -0.0011
            Z     0.0005    0.0010    0.0224   -0.0011   -0.0057    0.0078
 AT.   7 S  X     0.0308   -0.0189    0.0121   -0.0078   -0.0011   -0.0057
            Y    -0.0002    0.0199    0.0103   -0.0057   -0.0078   -0.0011
            Z    -0.0005   -0.0010   -0.0224   -0.0011   -0.0057   -0.0078
 AT.   8 S  X     0.0308    0.0189   -0.0121    0.0078   -0.0011   -0.0057
            Y    -0.0002   -0.0199   -0.0103    0.0057   -0.0078   -0.0011
            Z     0.0005   -0.0010   -0.0224   -0.0011    0.0057    0.0078
 AT.   9 S  X    -0.0308   -0.0189    0.0121    0.0078   -0.0011    0.0057
            Y    -0.0002   -0.0199   -0.0103   -0.0057    0.0078   -0.0011
            Z    -0.0005    0.0010    0.0224   -0.0011    0.0057   -0.0078
 AT.  10 S  X    -0.0308    0.0189   -0.0121   -0.0078   -0.0011    0.0057
            Y    -0.0002    0.0199    0.0103    0.0057    0.0078   -0.0011
            Z     0.0005    0.0010    0.0224   -0.0011   -0.0057    0.0078
 AT.  11 S  X     0.0308   -0.0189    0.0121   -0.0078   -0.0011   -0.0057
            Y    -0.0002    0.0199    0.0103   -0.0057   -0.0078   -0.0011
            Z    -0.0005   -0.0010   -0.0224   -0.0011   -0.0057   -0.0078
 AT.  12 S  X     0.0308    0.0189   -0.0121    0.0078   -0.0011   -0.0057
            Y    -0.0002   -0.0199   -0.0103    0.0057   -0.0078   -0.0011
            Z     0.0005   -0.0010   -0.0224   -0.0011    0.0057    0.0078

 FREQ(CM**-1)    341.54    344.18    344.18    344.18    354.99    354.99

 AT.   1 FE X     0.0137   -0.0102   -0.0055   -0.0127    0.0000    0.0000
            Y    -0.0137    0.0127   -0.0102   -0.0055    0.0000    0.0000
            Z    -0.0137   -0.0055   -0.0127    0.0102    0.0000    0.0000
 AT.   2 FE X    -0.0137    0.0102   -0.0055   -0.0127    0.0000    0.0000
            Y     0.0137   -0.0127   -0.0102   -0.0055    0.0000    0.0000
            Z    -0.0137   -0.0055    0.0127   -0.0102    0.0000    0.0000
 AT.   3 FE X     0.0137    0.0102   -0.0055    0.0127    0.0000    0.0000
            Y     0.0137    0.0127    0.0102   -0.0055    0.0000    0.0000
            Z     0.0137   -0.0055    0.0127    0.0102    0.0000    0.0000
 AT.   4 FE X    -0.0137   -0.0102   -0.0055    0.0127    0.0000    0.0000
            Y    -0.0137   -0.0127    0.0102   -0.0055    0.0000    0.0000
            Z     0.0137   -0.0055   -0.0127   -0.0102    0.0000    0.0000
 AT.   5 S  X     0.0172   -0.0298    0.0048   -0.0140    0.0092   -0.0233
            Y    -0.0172    0.0140   -0.0298    0.0048    0.0264    0.0092
            Z    -0.0172    0.0048   -0.0140    0.0298   -0.0233   -0.0264
 AT.   6 S  X    -0.0172    0.0298    0.0048   -0.0140   -0.0092   -0.0233
            Y     0.0172   -0.0140   -0.0298    0.0048   -0.0264    0.0092
            Z    -0.0172    0.0048    0.0140   -0.0298   -0.0233    0.0264
 AT.   7 S  X     0.0172    0.0298    0.0048    0.0140   -0.0092   -0.0233
            Y     0.0172    0.0140    0.0298    0.0048    0.0264   -0.0092
            Z     0.0172    0.0048    0.0140    0.0298   -0.0233    0.0264
 AT.   8 S  X    -0.0172   -0.0298    0.0048    0.0140    0.0092   -0.0233
            Y    -0.0172   -0.0140    0.0298    0.0048   -0.0264   -0.0092
            Z     0.0172    0.0048   -0.0140   -0.0298   -0.0233   -0.0264
 AT.   9 S  X     0.0172   -0.0298    0.0048   -0.0140   -0.0092    0.0233
            Y    -0.0172    0.0140   -0.0298    0.0048   -0.0264   -0.0092
            Z    -0.0172    0.0048   -0.0140    0.0298    0.0233    0.0264
 AT.  10 S  X    -0.0172    0.0298    0.0048   -0.0140    0.0092    0.0233
            Y     0.0172   -0.0140   -0.0298    0.0048    0.0264   -0.0092
            Z    -0.0172    0.0048    0.0140   -0.0298    0.0233   -0.0264
 AT.  11 S  X     0.0172    0.0298    0.0048    0.0140    0.0092    0.0233
            Y     0.0172    0.0140    0.0298    0.0048   -0.0264    0.0092
            Z     0.0172    0.0048    0.0140    0.0298    0.0233   -0.0264
 AT.  12 S  X    -0.0172   -0.0298    0.0048    0.0140   -0.0092    0.0233
            Y    -0.0172   -0.0140    0.0298    0.0048    0.0264    0.0092
            Z     0.0172    0.0048   -0.0140   -0.0298    0.0233    0.0264

 FREQ(CM**-1)    354.99    359.92    359.92    365.66    365.66    365.66

 AT.   1 FE X     0.0000    0.0000    0.0000    0.0000    0.0000    0.0000
            Y     0.0000    0.0000    0.0000    0.0000    0.0000    0.0000
            Z     0.0000    0.0000    0.0000    0.0000    0.0000    0.0000
 AT.   2 FE X     0.0000    0.0000    0.0000    0.0000    0.0000    0.0000
            Y     0.0000    0.0000    0.0000    0.0000    0.0000    0.0000
            Z     0.0000    0.0000    0.0000    0.0000    0.0000    0.0000
 AT.   3 FE X     0.0000    0.0000    0.0000    0.0000    0.0000    0.0000
            Y     0.0000    0.0000    0.0000    0.0000    0.0000    0.0000
            Z     0.0000    0.0000    0.0000    0.0000    0.0000    0.0000
 AT.   4 FE X     0.0000    0.0000    0.0000    0.0000    0.0000    0.0000
            Y     0.0000    0.0000    0.0000    0.0000    0.0000    0.0000
            Z     0.0000    0.0000    0.0000    0.0000    0.0000    0.0000
 AT.   5 S  X    -0.0264    0.0256    0.0148    0.0307    0.0179   -0.0051
            Y    -0.0233    0.0256   -0.0148    0.0051    0.0307    0.0179
            Z    -0.0092    0.0000    0.0295    0.0179   -0.0051   -0.0307
 AT.   6 S  X    -0.0264   -0.0256   -0.0148   -0.0307    0.0179   -0.0051
            Y    -0.0233   -0.0256    0.0148   -0.0051    0.0307    0.0179
            Z     0.0092    0.0000    0.0295    0.0179    0.0051    0.0307
 AT.   7 S  X     0.0264    0.0256    0.0148   -0.0307    0.0179    0.0051
            Y    -0.0233   -0.0256    0.0148    0.0051   -0.0307    0.0179
            Z    -0.0092    0.0000   -0.0295    0.0179    0.0051   -0.0307
 AT.   8 S  X     0.0264   -0.0256   -0.0148    0.0307    0.0179    0.0051
            Y    -0.0233    0.0256   -0.0148   -0.0051   -0.0307    0.0179
            Z     0.0092    0.0000   -0.0295    0.0179   -0.0051    0.0307
 AT.   9 S  X     0.0264   -0.0256   -0.0148   -0.0307   -0.0179    0.0051
            Y     0.0233   -0.0256    0.0148   -0.0051   -0.0307   -0.0179
            Z     0.0092    0.0000   -0.0295   -0.0179    0.0051    0.0307
 AT.  10 S  X     0.0264    0.0256    0.0148    0.0307   -0.0179    0.0051
            Y     0.0233    0.0256   -0.0148    0.0051   -0.0307   -0.0179
            Z    -0.0092    0.0000   -0.0295   -0.0179   -0.0051   -0.0307
 AT.  11 S  X    -0.0264   -0.0256   -0.0148    0.0307   -0.0179   -0.0051
            Y     0.0233    0.0256   -0.0148   -0.0051    0.0307   -0.0179
            Z     0.0092    0.0000    0.0295   -0.0179   -0.0051    0.0307
 AT.  12 S  X    -0.0264    0.0256    0.0148   -0.0307   -0.0179   -0.0051
            Y     0.0233   -0.0256    0.0148    0.0051    0.0307   -0.0179
            Z    -0.0092    0.0000    0.0295   -0.0179    0.0051   -0.0307

 FREQ(CM**-1)    370.78    370.78    370.78    378.59    378.59    417.57

 AT.   1 FE X     0.0017    0.0036    0.0208    0.0078   -0.0172   -0.0006
            Y    -0.0208    0.0017    0.0036   -0.0110   -0.0153    0.0052
            Z     0.0036    0.0208   -0.0017    0.0188   -0.0019    0.0255
 AT.   2 FE X    -0.0017    0.0036    0.0208   -0.0078    0.0172    0.0006
            Y     0.0208    0.0017    0.0036    0.0110    0.0153   -0.0052
            Z     0.0036   -0.0208    0.0017    0.0188   -0.0019    0.0255
 AT.   3 FE X    -0.0017    0.0036   -0.0208    0.0078   -0.0172    0.0006
            Y    -0.0208   -0.0017    0.0036    0.0110    0.0153    0.0052
            Z     0.0036   -0.0208   -0.0017   -0.0188    0.0019    0.0255
 AT.   4 FE X     0.0017    0.0036   -0.0208   -0.0078    0.0172   -0.0006
            Y     0.0208   -0.0017    0.0036   -0.0110   -0.0153   -0.0052
            Z     0.0036    0.0208    0.0017   -0.0188    0.0019    0.0255
 AT.   5 S  X    -0.0196   -0.0032    0.0220    0.0118   -0.0195   -0.0031
            Y    -0.0220   -0.0196   -0.0032   -0.0110   -0.0199    0.0053
            Z    -0.0032    0.0220    0.0196    0.0227    0.0005   -0.0223
 AT.   6 S  X     0.0196   -0.0032    0.0220   -0.0118    0.0195    0.0031
            Y     0.0220   -0.0196   -0.0032    0.0110    0.0199   -0.0053
            Z    -0.0032   -0.0220   -0.0196    0.0227    0.0005   -0.0223
 AT.   7 S  X     0.0196   -0.0032   -0.0220    0.0118   -0.0195    0.0031
            Y    -0.0220    0.0196   -0.0032    0.0110    0.0199    0.0053
            Z    -0.0032   -0.0220    0.0196   -0.0227   -0.0005   -0.0223
 AT.   8 S  X    -0.0196   -0.0032   -0.0220   -0.0118    0.0195   -0.0031
            Y     0.0220    0.0196   -0.0032   -0.0110   -0.0199   -0.0053
            Z    -0.0032    0.0220   -0.0196   -0.0227   -0.0005   -0.0223
 AT.   9 S  X    -0.0196   -0.0032    0.0220    0.0118   -0.0195   -0.0031
            Y    -0.0220   -0.0196   -0.0032   -0.0110   -0.0199    0.0053
            Z    -0.0032    0.0220    0.0196    0.0227    0.0005   -0.0223
 AT.  10 S  X     0.0196   -0.0032    0.0220   -0.0118    0.0195    0.0031
            Y     0.0220   -0.0196   -0.0032    0.0110    0.0199   -0.0053
            Z    -0.0032   -0.0220   -0.0196    0.0227    0.0005   -0.0223
 AT.  11 S  X     0.0196   -0.0032   -0.0220    0.0118   -0.0195    0.0031
            Y    -0.0220    0.0196   -0.0032    0.0110    0.0199    0.0053
            Z    -0.0032   -0.0220    0.0196   -0.0227   -0.0005   -0.0223
 AT.  12 S  X    -0.0196   -0.0032   -0.0220   -0.0118    0.0195   -0.0031
            Y     0.0220    0.0196   -0.0032   -0.0110   -0.0199   -0.0053
            Z    -0.0032    0.0220   -0.0196   -0.0227   -0.0005   -0.0223

 FREQ(CM**-1)    417.57    417.57    479.31    509.64    509.64    509.64

 AT.   1 FE X     0.0255   -0.0052    0.0000    0.0000    0.0000    0.0000
            Y    -0.0006    0.0255    0.0000    0.0000    0.0000    0.0000
            Z    -0.0052    0.0006    0.0000    0.0000    0.0000    0.0000
 AT.   2 FE X     0.0255   -0.0052    0.0000    0.0000    0.0000    0.0000
            Y    -0.0006    0.0255    0.0000    0.0000    0.0000    0.0000
            Z     0.0052   -0.0006    0.0000    0.0000    0.0000    0.0000
 AT.   3 FE X     0.0255    0.0052    0.0000    0.0000    0.0000    0.0000
            Y     0.0006    0.0255    0.0000    0.0000    0.0000    0.0000
            Z     0.0052    0.0006    0.0000    0.0000    0.0000    0.0000
 AT.   4 FE X     0.0255    0.0052    0.0000    0.0000    0.0000    0.0000
            Y     0.0006    0.0255    0.0000    0.0000    0.0000    0.0000
            Z    -0.0052   -0.0006    0.0000    0.0000    0.0000    0.0000
 AT.   5 S  X    -0.0223   -0.0053    0.0181   -0.0138    0.0178   -0.0205
            Y    -0.0031   -0.0223   -0.0181    0.0205   -0.0138    0.0178
            Z    -0.0053    0.0031   -0.0181    0.0178   -0.0205    0.0138
 AT.   6 S  X    -0.0223   -0.0053   -0.0181    0.0138    0.0178   -0.0205
            Y    -0.0031   -0.0223    0.0181   -0.0205   -0.0138    0.0178
            Z     0.0053   -0.0031   -0.0181    0.0178    0.0205   -0.0138
 AT.   7 S  X    -0.0223    0.0053    0.0181    0.0138    0.0178    0.0205
            Y     0.0031   -0.0223    0.0181    0.0205    0.0138    0.0178
            Z     0.0053    0.0031    0.0181    0.0178    0.0205    0.0138
 AT.   8 S  X    -0.0223    0.0053   -0.0181   -0.0138    0.0178    0.0205
            Y     0.0031   -0.0223   -0.0181   -0.0205    0.0138    0.0178
            Z    -0.0053   -0.0031    0.0181    0.0178   -0.0205   -0.0138
 AT.   9 S  X    -0.0223   -0.0053   -0.0181    0.0138   -0.0178    0.0205
            Y    -0.0031   -0.0223    0.0181   -0.0205    0.0138   -0.0178
            Z    -0.0053    0.0031    0.0181   -0.0178    0.0205   -0.0138
 AT.  10 S  X    -0.0223   -0.0053    0.0181   -0.0138   -0.0178    0.0205
            Y    -0.0031   -0.0223   -0.0181    0.0205    0.0138   -0.0178
            Z     0.0053   -0.0031    0.0181   -0.0178   -0.0205    0.0138
 AT.  11 S  X    -0.0223    0.0053   -0.0181   -0.0138   -0.0178   -0.0205
            Y     0.0031   -0.0223   -0.0181   -0.0205   -0.0138   -0.0178
            Z     0.0053    0.0031   -0.0181   -0.0178   -0.0205   -0.0138
 AT.  12 S  X    -0.0223    0.0053    0.0181    0.0138   -0.0178   -0.0205
            Y     0.0031   -0.0223    0.0181    0.0205   -0.0138   -0.0178
            Z    -0.0053   -0.0031   -0.0181   -0.0178    0.0205    0.0138

 *******************************************************************************

 VIBRATIONAL TEMPERATURES (K) [MODE NUMBER;IRREP]

 TO MODES
   308.0 [   4;Au ]   308.2 [   5;Fu ]   308.2 [   6;Fu ]   308.2 [   7;Fu ]
   337.3 [   8;Eu ]   337.3 [   9;Eu ]   417.7 [  10;Fu ]   417.7 [  11;Fu ]
   417.7 [  12;Fu ]   491.4 [  13;Au ]   495.2 [  14;Fu ]   495.2 [  15;Fu ]
   495.2 [  16;Fu ]   510.7 [  17;Fg ]   510.7 [  18;Fg ]   510.7 [  19;Fg ]
   517.8 [  20;Eg ]   517.8 [  21;Eg ]   526.1 [  22;Fg ]   526.1 [  23;Fg ]
   526.1 [  24;Fg ]   533.5 [  25;Fu ]   533.5 [  26;Fu ]   533.5 [  27;Fu ]
   544.7 [  28;Eu ]   544.7 [  29;Eu ]   600.8 [  30;Fu ]   600.8 [  31;Fu ]
   600.8 [  32;Fu ]   689.6 [  33;Ag ]   733.3 [  34;Fg ]   733.3 [  35;Fg ]
   733.3 [  36;Fg ]

 *******************************************************************************

 HARMONIC VIBRATIONAL CONTRIBUTIONS TO THERMODYNAMIC FUNCTIONS AT GIVEN
 TEMPERATURE AND PRESSURE:

 (EL = ELECTRONIC ENERGY
  E0 = ZERO-POINT ENERGY
  ET = THERMAL CONTRIBUTION TO THE VIBRATIONAL ENERGY
  PV = PRESSURE * VOLUME
  TS = TEMPERATURE * ENTROPY)

                          AU/CELL             EV/CELL                 KJ/MOL
 EL            :   -8238.463190350238 -224179.980499407480   -21630082.05803317
 E0            :       0.026387387521       0.718037318765          69.28007617


 *******************************************************************************

 THERMODYNAMIC FUNCTIONS WITH VIBRATIONAL CONTRIBUTIONS

 AT (T =  298.15 K, P =   0.10132500E+00 MPA):

                          AU/CELL             EV/CELL                 KJ/MOL
 ET            :       0.012192755663       0.331781749038          32.01207548
 PV            :       0.000003899804       0.000106119048           0.01023893
 TS            :       0.019255660431       0.523973158600          50.55572934
 ET+PV-TS      :      -0.007059004965      -0.192085290513         -18.53341492
 EL+E0+ET+PV-TS:   -8238.443861967682 -224179.454547379253   -21630031.31137192

 OTHER THERMODYNAMIC FUNCTIONS:

                      mHARTREE/(CELL*K)     mEV/(CELL*K)              J/(MOL*K)
 ENTROPY       :       0.064583801545       1.757414585274         169.56474706
 HEAT CAPACITY :       0.082266271329       2.238579050026         215.99006494

 *******************************************************************************
 TTTTTTTTTTTTTTTTTTTTTTTTTTTTTT END         TELAPSE     9750.84 TCPU     8722.51
 EEEEEEEEEE TERMINATION  DATE 29 05 2023 TIME 20:42:45.2
