         256 PROCESSORS WORKING

         
 *******************************************************************************
 *                                                                             *
 *                               CRYSTAL23                                     *
 *                      public : 1.0.1 - October 2022                          *
 *                       HTTP://WWW.CRYSTAL.UNITO.IT                           *
 *                                                                             *
 *                              MAIN AUTHORS                                   *
 *                                                                             *
 *  R. DOVESI(1,11), V.R. SAUNDERS(2), C. ROETTI(1,11), R. ORLANDO(1,11),      *
 *  C.M. ZICOVICH-WILSON(1,3), F. PASCALE(4), B. CIVALLERI(1,11),              *
 *  K. DOLL(5), N.M. HARRISON(6), I.J. BUSH(7), Ph. D'ARCO(8),                 *
 *  M. LLUNELL(9), M. CAUSA'(10), Y. NOEL(8), L. MASCHIO(1,11), A. ERBA(1,11)  *
 *  M. RE'RAT(14), S. CASASSA(1,11), B.G. SEARLE(2), J.K. DESMARAIS(1)         *
 *                                                                             *
 *        CONTRIBUTIONS TO THE CODE HAVE ALSO BEEN GIVEN BY                    *
 *                                                                             *
 *  M. FERRABONE(1,11), M. DE LA PIERRE(1,11), M. FERRERO(1,11),               *
 *  J. BAIMA(1,11), E. ALBANESE(1,11), M.F. PEINTINGER(12), R. BAST(13),       *
 *  B. KIRTMAN(15), V. LACIVITA(1,11), R. DEMICHELIS(1,16)                     *
 *  G. BRANDEBURG(17), S. SALUSTRO(1,11), G. SANSONE(1,11)                     *
 *  M.T. RUGGIERO(18), L.E. DAGA(1), L. DONA'(1), A. COSSARD(1)                *
 *                                                                             *
 * (1) THEORETICAL CHEMISTRY GROUP - UNIVERSITA' DI TORINO - TORINO (ITALY)    *
 * (2) SCIENTIFIC COMPUTING DEPARTMENT - STFC DARESBURY (UK)                   *
 * (3) UNIVERSIDAD AUTONOMA DEL ESTADO DE MORELOS - CUERNAVACA (MEXICO)        *
 * (4) UNIVERSITE' DE LORRAINE - NANCY (FRANCE)                                *
 * (5) UNIVERSITAET STUTTGART- STUTTGART (GERMANY)                             *
 * (6) IMPERIAL COLLEGE - LONDON (UK)                                          *
 * (7) SCIENTIFIC COMPUTING DEPARTMENT - STFC RAL (UK)                         *
 * (8) UPMC - SORBONNE UNIVERSITES - PARIS (FRANCE)                            *
 * (9) UNIVERSIDAD DE BARCELONA - BARCELONA (SPAIN)                            *
 *(10) UNIVERSITA' DI NAPOLI "FEDERICO II" - NAPOLI (ITALY)                    *
 *(11) NIS - NANOSTRUCTURED INTERFACES AND SURFACES - TORINO (ITALY)           *
 *(12) MPI FUER CHEMISCHE ENERGIEKONVERSION - MUELHEIM AN DER RUHR (GERMANY)   *
 *(13) UNIVERSITY OF TROMSO - TROMSO (NORWAY)                                  *
 *(14) UNIVERSITE' DE PAU ET DES PAYS DE L'ADOUR - PAU (FRANCE)                *
 *(15) UNIVERSITY OF CALIFORNIA SANTA BARBARA - SANTA BARBARA (USA)            *
 *(16) CURTIN UNIVERSITY - PERTH (AUSTRALIA)                                   *
 *(17) UNIVERSITY COLLEGE LONDON - LONDON (UK)                                 *
 *(18) UNIVERSITY OF VERMONT - BURLINGTON (USA)                                *
 *                                                                             *
 *******************************************************************************
 EEEEEEEEEE STARTING  DATE 29 05 2023 TIME 18:02:39.5
 ICSD_CollCode610107.cif                                                         

 CRYSTAL CALCULATION
 (INPUT ACCORDING TO THE INTERNATIONAL TABLES FOR X-RAY CRYSTALLOGRAPHY)
 CRYSTAL FAMILY                       :  CUBIC       
 CRYSTAL CLASS  (GROTH - 1921)        :  CUBIC TETRAHEDRAL-PENTAGONALDODECAHED

 SPACE GROUP (NONCENTROSYMMETRIC)     :  P 21 3          

 LATTICE PARAMETERS  (ANGSTROMS AND DEGREES) - CONVENTIONAL CELL
        A           B           C        ALPHA        BETA       GAMMA
     5.57600     5.57600     5.57600    90.00000    90.00000    90.00000


 NUMBER OF IRREDUCIBLE ATOMS IN THE CONVENTIONAL CELL:    3

 INPUT COORDINATES

 ATOM AT. N.              COORDINATES
   1  27     4.900000000000E-01  9.900000000000E-01  5.100000000000E-01
   2  33     1.200000000000E-01  6.200000000000E-01  8.800000000000E-01
   3  16     8.830000000000E-01  3.830000000000E-01  1.170000000000E-01

 *******************************************************************************

 << INFORMATION >>: FROM NOW ON, ALL COORDINATES REFER TO THE PRIMITIVE CELL

 *******************************************************************************

 LATTICE PARAMETERS  (ANGSTROMS AND DEGREES) - PRIMITIVE CELL
       A          B          C        ALPHA      BETA     GAMMA        VOLUME
    5.57600    5.57600    5.57600    90.00000  90.00000  90.00000    173.367743

 COORDINATES OF THE EQUIVALENT ATOMS (FRACTIONAL UNITS)

 N. ATOM EQUIV AT. N.          X                  Y                  Z

   1   1   1   27 CO    4.90000000000E-01 -1.00000000000E-02 -4.90000000000E-01
   2   1   2   27 CO    1.00000000000E-02  1.00000000000E-02  1.00000000000E-02
   3   1   3   27 CO   -1.00000000000E-02 -4.90000000000E-01  4.90000000000E-01
   4   1   4   27 CO   -4.90000000000E-01  4.90000000000E-01 -1.00000000000E-02

   5   2   1   33 AS    1.20000000000E-01 -3.80000000000E-01 -1.20000000000E-01
   6   2   2   33 AS    3.80000000000E-01  3.80000000000E-01  3.80000000000E-01
   7   2   3   33 AS   -3.80000000000E-01 -1.20000000000E-01  1.20000000000E-01
   8   2   4   33 AS   -1.20000000000E-01  1.20000000000E-01 -3.80000000000E-01

   9   3   1   16 S    -1.17000000000E-01  3.83000000000E-01  1.17000000000E-01
  10   3   2   16 S    -3.83000000000E-01 -3.83000000000E-01 -3.83000000000E-01
  11   3   3   16 S     3.83000000000E-01  1.17000000000E-01 -1.17000000000E-01
  12   3   4   16 S     1.17000000000E-01 -1.17000000000E-01  3.83000000000E-01

 NUMBER OF SYMMETRY OPERATORS         :   12
 *******************************************************************************
 * GEOMETRY EDITING - INPUT COORDINATES ARE GIVEN IN ANGSTROM         
 *******************************************************************************

 GEOMETRY NOW FULLY CONSISTENT WITH THE GROUP

 FRQFRQFRQFRQFRQFRQFRQFRQFRQFRQFRQFRQFRQFRQFRQFRQFRQFRQFRQFRQFRQFRQFRQFRQFRQFRQ

                       FREQUENCY CALCULATION

 OPTIMIZATION PERFORMED BEFORE FREQUENCIES CALCULATION
 *******************************************************************************
 INFORMATION **** NEW DEFAULT **** FINALRUN 4 FOR GEOMETRY OPTIMIZATIONS
 INFORMATION **** NEW DEFAULT **** OPTGEOM OPTIMIZES ATOMIC COORDINATES ONLY
 INFORMATION **** NEW DEFAULT **** TOL. ON ATOMIC DISP TO REDEFINE REF. GEOMETRY: 0.8 Angs
 INFORMATION **** NEW DEFAULT **** N POINTS TO REDEFINE REF. GEOMETRY: N OF OPT DEGS OF FREEDOM
 INFORMATION **** NEW DEFAULT **** TOL. ON ENERGY TO REDEFINE REF. GEOMETRY: 10**-3*(5*N. ATOMS)
 INFORMATION **** FULLOPTG **** FULL OPTIMIZATION (ATOMS AND CELL PARAMETERS)

 IMPORTANT INFORMATION:
 THE COORDINATE SYSTEM ADOPTED IN THE OPTIMIZATION IS NOT IN
 GENERAL HOMOGENEOUS UNITS. FOR THIS REASON THE GRADIENT AND 
 HESSIAN MATRIX IN TERMS OF THIS SYSTEM ARE GIVEN WITHOUT
 UNITS. FOR MORE DETAILS SEE THE MANUAL.

 *******************************************************************************
 COMBINED CELL/ATOM OPTIMIZATION CONTROL

 INITIAL TRUST RADIUS         0.50000 MAXIMUM TRUST RADIUS               0.50000
 MAXIMUM GRADIENT COMPONENT   0.00005 MAXIMUM DISPLACEMENT COMPONENT     0.00018
 R.M.S. OF GRADIENT COMPONENT 0.00003 R.M.S. OF DISPLACEMENT COMPONENTS  0.00012
 THRESHOLD ON ENERGY CHANGE 0.100E-06 EXTRAPOLATING POLYNOMIAL ORDER           2
 MAXIMUM ALLOWED NUMBER OF STEPS   -1 SORTING OF ENERGY POINTS:               NO
 ANALYTICAL  GRADIENT                 HESSIAN UPDATING                      BFGS
 STEP SIZE NUMERICAL GRADIENT 0.00100
 INITIAL HESSIAN MATRIX: SCHLEGEL MODEL 2
 *******************************************************************************

 INFORMATION **** INPFREQ **** IR INTENSITIES EVALUATED THROUGH CPHF APPROACH
 INFORMATION **** INPFREQ **** NEW DEFAULT - IMPOSING ECKART CONDITIONS TO THE HESSIAN

 GCALCO - MAX INDICES DIRECT LATTICE VECTOR    14    14    14
 NO.OF VECTORS CREATED 6999 STARS  120 RMAX   125.12128 BOHR

 GEOMETRY FOR WAVE FUNCTION - DIMENSIONALITY OF THE SYSTEM    3
 (NON PERIODIC DIRECTION: LATTICE PARAMETER FORMALLY SET TO 500)
 *******************************************************************************
 LATTICE PARAMETERS (ANGSTROMS AND DEGREES) - BOHR = 0.5291772083 ANGSTROM
 PRIMITIVE CELL - CENTRING CODE 1/0 VOLUME=   173.367743 - DENSITY  6.353 g/cm^3
         A              B              C           ALPHA      BETA       GAMMA 
     5.57600000     5.57600000     5.57600000    90.000000  90.000000  90.000000
 *******************************************************************************
 ATOMS IN THE ASYMMETRIC UNIT    3 - ATOMS IN THE UNIT CELL:   12
     ATOM                 X/A                 Y/B                 Z/C    
 *******************************************************************************
      1 T  27 CO    4.900000000000E-01 -1.000000000000E-02 -4.900000000000E-01
      2 F  27 CO    1.000000000000E-02  1.000000000000E-02  1.000000000000E-02
      3 F  27 CO   -1.000000000000E-02 -4.900000000000E-01  4.900000000000E-01
      4 F  27 CO   -4.900000000000E-01  4.900000000000E-01 -1.000000000000E-02
      5 T  33 AS    1.200000000000E-01 -3.800000000000E-01 -1.200000000000E-01
      6 F  33 AS    3.800000000000E-01  3.800000000000E-01  3.800000000000E-01
      7 F  33 AS   -3.800000000000E-01 -1.200000000000E-01  1.200000000000E-01
      8 F  33 AS   -1.200000000000E-01  1.200000000000E-01 -3.800000000000E-01
      9 T  16 S    -1.170000000000E-01  3.830000000000E-01  1.170000000000E-01
     10 F  16 S    -3.830000000000E-01 -3.830000000000E-01 -3.830000000000E-01
     11 F  16 S     3.830000000000E-01  1.170000000000E-01 -1.170000000000E-01
     12 F  16 S     1.170000000000E-01 -1.170000000000E-01  3.830000000000E-01

 T = ATOM BELONGING TO THE ASYMMETRIC UNIT

 ****   12 SYMMOPS - TRANSLATORS IN FRACTIONAL UNITS
 **** MATRICES AND TRANSLATORS IN THE CRYSTALLOGRAPHIC REFERENCE FRAME
   V INV                    ROTATION MATRICES                   TRANSLATORS
   1   1  1.00  0.00  0.00  0.00  1.00  0.00  0.00  0.00  1.00  0.00  0.00  0.00
   2   2 -1.00  0.00  0.00  0.00 -1.00  0.00  0.00  0.00  1.00  0.50  0.00  0.50
   3   3  1.00  0.00  0.00  0.00 -1.00  0.00  0.00  0.00 -1.00  0.50  0.50  0.00
   4   4 -1.00  0.00  0.00  0.00  1.00  0.00  0.00  0.00 -1.00  0.00  0.50  0.50
   5   6  0.00  0.00  1.00  1.00  0.00  0.00  0.00  1.00  0.00  0.00  0.00  0.00
   6   5  0.00  1.00  0.00  0.00  0.00  1.00  1.00  0.00  0.00  0.00  0.00  0.00
   7   8  0.00  0.00 -1.00 -1.00  0.00  0.00  0.00  1.00  0.00  0.50  0.00  0.50
   8   7  0.00 -1.00  0.00  0.00  0.00  1.00 -1.00  0.00  0.00  0.00  0.50  0.50
   9  10  0.00  0.00  1.00 -1.00  0.00  0.00  0.00 -1.00  0.00  0.50  0.50  0.00
  10   9  0.00 -1.00  0.00  0.00  0.00 -1.00  1.00  0.00  0.00  0.50  0.00  0.50
  11  12  0.00  0.00 -1.00  1.00  0.00  0.00  0.00 -1.00  0.00  0.00  0.50  0.50
  12  11  0.00  1.00  0.00  0.00  0.00 -1.00 -1.00  0.00  0.00  0.50  0.50  0.00

 DIRECT LATTICE VECTORS CARTESIAN COMPONENTS (ANGSTROM)
          X                    Y                    Z
   0.557600000000E+01   0.000000000000E+00   0.000000000000E+00
   0.000000000000E+00   0.557600000000E+01   0.000000000000E+00
   0.000000000000E+00   0.000000000000E+00   0.557600000000E+01


 CARTESIAN COORDINATES - PRIMITIVE CELL
 *******************************************************************************
 *      ATOM          X(ANGSTROM)         Y(ANGSTROM)         Z(ANGSTROM)
 *******************************************************************************
    1    27 CO    2.732240000000E+00 -5.576000000000E-02 -2.732240000000E+00
    2    27 CO    5.576000000000E-02  5.576000000000E-02  5.576000000000E-02
    3    27 CO   -5.576000000000E-02 -2.732240000000E+00  2.732240000000E+00
    4    27 CO   -2.732240000000E+00  2.732240000000E+00 -5.576000000000E-02
    5    33 AS    6.691200000000E-01 -2.118880000000E+00 -6.691200000000E-01
    6    33 AS    2.118880000000E+00  2.118880000000E+00  2.118880000000E+00
    7    33 AS   -2.118880000000E+00 -6.691200000000E-01  6.691200000000E-01
    8    33 AS   -6.691200000000E-01  6.691200000000E-01 -2.118880000000E+00
    9    16 S    -6.523920000000E-01  2.135608000000E+00  6.523920000000E-01
   10    16 S    -2.135608000000E+00 -2.135608000000E+00 -2.135608000000E+00
   11    16 S     2.135608000000E+00  6.523920000000E-01 -6.523920000000E-01
   12    16 S     6.523920000000E-01 -6.523920000000E-01  2.135608000000E+00

 *******************************************************************************
 LOCAL ATOMIC FUNCTIONS BASIS SET
 *******************************************************************************
   ATOM   X(AU)   Y(AU)   Z(AU)  N. TYPE  EXPONENT  S COEF   P COEF   D/F/G COEF
 *******************************************************************************
   1 CO   5.163  -0.105  -5.163
                                  1 S  
                                         3.258E+05 2.257E-04 0.000E+00 0.000E+00
                                         4.884E+04 1.750E-03 0.000E+00 0.000E+00
                                         1.111E+04 9.100E-03 0.000E+00 0.000E+00
                                         3.146E+03 3.700E-02 0.000E+00 0.000E+00
                                         1.024E+03 1.204E-01 0.000E+00 0.000E+00
                                         3.680E+02 2.860E-01 0.000E+00 0.000E+00
                                         1.429E+02 4.091E-01 0.000E+00 0.000E+00
                                         5.648E+01 2.150E-01 0.000E+00 0.000E+00
                                  2 S  
                                         3.564E+02-2.477E-02 0.000E+00 0.000E+00
                                         1.103E+02-1.170E-01 0.000E+00 0.000E+00
                                         1.766E+01 5.522E-01 0.000E+00 0.000E+00
                                         7.506E+00 5.325E-01 0.000E+00 0.000E+00
                                  3 S  
                                         1.150E+01-2.294E-01 0.000E+00 0.000E+00
                                         1.908E+00 7.118E-01 0.000E+00 0.000E+00
                                  4 S  
                                         1.608E+00 1.000E+00 0.000E+00 0.000E+00
                                  5 S  
                                         7.956E-01 1.000E+00 0.000E+00 0.000E+00
                                  6 S  
                                         1.557E-01 1.000E+00 0.000E+00 0.000E+00
                           7-     9 P  
                                         1.731E+03 0.000E+00 2.391E-03 0.000E+00
                                         4.099E+02 0.000E+00 1.938E-02 0.000E+00
                                         1.315E+02 0.000E+00 9.091E-02 0.000E+00
                                         4.899E+01 0.000E+00 2.615E-01 0.000E+00
                                         1.954E+01 0.000E+00 4.216E-01 0.000E+00
                                         7.929E+00 0.000E+00 2.457E-01 0.000E+00
                          10-    12 P  
                                         3.108E+01 0.000E+00-2.944E-02 0.000E+00
                                         4.284E+00 0.000E+00 5.562E-01 0.000E+00
                                         1.702E+00 0.000E+00 9.677E-01 0.000E+00
                          13-    15 P  
                                         1.163E+00 0.000E+00 1.000E+00 0.000E+00
                          16-    18 P  
                                         5.019E-01 0.000E+00 1.000E+00 0.000E+00
                          19-    23 D  
                                         6.814E+01 0.000E+00 0.000E+00 1.198E-02
                                         1.969E+01 0.000E+00 0.000E+00 7.369E-02
                                         6.932E+00 0.000E+00 0.000E+00 2.309E-01
                                         2.603E+00 0.000E+00 0.000E+00 3.928E-01
                          24-    28 D  
                                         9.207E-01 0.000E+00 0.000E+00 1.000E+00
                          29-    33 D  
                                         2.922E-01 0.000E+00 0.000E+00 1.000E+00
                          34-    40 F  
                                         1.903E+00 0.000E+00 0.000E+00 1.000E+00
   2 CO   0.105   0.105   0.105
   3 CO  -0.105  -5.163   5.163
   4 CO  -5.163   5.163  -0.105
   5 AS   1.264  -4.004  -1.264
                                161 S  
                                         4.980E+05 2.274E-04 0.000E+00 0.000E+00
                                         7.466E+04 1.763E-03 0.000E+00 0.000E+00
                                         1.699E+04 9.173E-03 0.000E+00 0.000E+00
                                         4.810E+03 3.734E-02 0.000E+00 0.000E+00
                                         1.566E+03 1.220E-01 0.000E+00 0.000E+00
                                         5.632E+02 2.914E-01 0.000E+00 0.000E+00
                                         2.191E+02 4.233E-01 0.000E+00 0.000E+00
                                         8.687E+01 2.292E-01 0.000E+00 0.000E+00
                                162 S  
                                         5.382E+02-2.525E-02 0.000E+00 0.000E+00
                                         1.671E+02-1.192E-01 0.000E+00 0.000E+00
                                         2.761E+01 5.463E-01 0.000E+00 0.000E+00
                                         1.195E+01 5.300E-01 0.000E+00 0.000E+00
                                163 S  
                                         1.854E+01-2.348E-01 0.000E+00 0.000E+00
                                         3.202E+00 6.917E-01 0.000E+00 0.000E+00
                                164 S  
                                         1.788E+00 1.000E+00 0.000E+00 0.000E+00
                                165 S  
                                         5.961E-01 1.000E+00 0.000E+00 0.000E+00
                                166 S  
                                         2.163E-01 1.000E+00 0.000E+00 0.000E+00
                         167-   169 P  
                                         2.679E+03 0.000E+00 2.332E-03 0.000E+00
                                         6.346E+02 0.000E+00 1.904E-02 0.000E+00
                                         2.039E+02 0.000E+00 9.023E-02 0.000E+00
                                         7.632E+01 0.000E+00 2.617E-01 0.000E+00
                                         3.066E+01 0.000E+00 4.186E-01 0.000E+00
                                         1.251E+01 0.000E+00 2.345E-01 0.000E+00
                         170-   172 P  
                                         4.926E+01 0.000E+00-2.124E-02 0.000E+00
                                         7.727E+00 0.000E+00 3.047E-01 0.000E+00
                                         3.541E+00 0.000E+00 5.289E-01 0.000E+00
                                         1.699E+00 0.000E+00 3.727E-01 0.000E+00
                         173-   175 P  
                                         8.685E-01 0.000E+00 1.000E+00 0.000E+00
                         176-   178 P  
                                         4.173E-01 0.000E+00 1.000E+00 0.000E+00
                         179-   181 P  
                                         1.470E-01 0.000E+00 1.000E+00 0.000E+00
                         182-   186 D  
                                         1.353E+02 0.000E+00 0.000E+00 9.929E-03
                                         3.986E+01 0.000E+00 0.000E+00 6.657E-02
                                         1.445E+01 0.000E+00 0.000E+00 2.228E-01
                                         5.643E+00 0.000E+00 0.000E+00 4.031E-01
                                         2.167E+00 0.000E+00 0.000E+00 4.167E-01
                         187-   191 D  
                                         1.898E+00 0.000E+00 0.000E+00 1.000E+00
                         192-   196 D  
                                         9.488E-01 0.000E+00 0.000E+00 1.000E+00
                         197-   201 D  
                                         4.744E-01 0.000E+00 0.000E+00 1.000E+00
   6 AS   4.004   4.004   4.004
   7 AS  -4.004  -1.264   1.264
   8 AS  -1.264   1.264  -4.004
   9 S   -1.233   4.036   1.233
                                325 S  
                                         6.070E+04 5.470E-04 0.000E+00 0.000E+00
                                         9.103E+03 4.230E-03 0.000E+00 0.000E+00
                                         2.071E+03 2.175E-02 0.000E+00 0.000E+00
                                         5.860E+02 8.510E-02 0.000E+00 0.000E+00
                                         1.906E+02 2.480E-01 0.000E+00 0.000E+00
                                         6.763E+01 4.670E-01 0.000E+00 0.000E+00
                                         2.513E+01 3.643E-01 0.000E+00 0.000E+00
                                326 S  
                                         1.126E+02 2.167E-02 0.000E+00 0.000E+00
                                         3.480E+01 9.360E-02 0.000E+00 0.000E+00
                                         6.512E+00-2.607E-01 0.000E+00 0.000E+00
                                327 S  
                                         3.240E+00 1.284E+00 0.000E+00 0.000E+00
                                         1.548E+00 6.604E-01 0.000E+00 0.000E+00
                                328 S  
                                         4.487E-01 1.000E+00 0.000E+00 0.000E+00
                                329 S  
                                         1.553E-01 1.000E+00 0.000E+00 0.000E+00
                         330-   332 P  
                                         5.644E+02 0.000E+00 2.480E-03 0.000E+00
                                         1.334E+02 0.000E+00 1.968E-02 0.000E+00
                                         4.247E+01 0.000E+00 8.998E-02 0.000E+00
                                         1.562E+01 0.000E+00 2.571E-01 0.000E+00
                                         6.109E+00 0.000E+00 4.352E-01 0.000E+00
                         333-   335 P  
                                         2.036E+00 0.000E+00 1.000E+00 0.000E+00
                         336-   338 P  
                                         4.338E-01 0.000E+00 1.000E+00 0.000E+00
                         339-   341 P  
                                         1.305E-01 0.000E+00 1.000E+00 0.000E+00
                         342-   346 D  
                                         4.107E-01 0.000E+00 0.000E+00 1.000E+00
  10 S   -4.036  -4.036  -4.036
  11 S    4.036   1.233  -1.233
  12 S    1.233  -1.233   4.036
 INFORMATION **** SET_MPP **** PCRYSTAL CALCULATION
 INFORMATION **** READM2 **** NEW DEFAULT: FOCK/KS MATRIX MIXING SET TO 30 %
 INFORMATION **** READM2 **** NEW DEFAULT: FULL DIRECT SCF MODE
 INFORMATION **** READM2 **** NEW DEFAULT: COULOMB BIPOLAR BUFFER SET TO 32 Mb
 INFORMATION **** READM2 **** NEW DEFAULT: EXCHANGE BIPOLAR BUFFER SET TO 32 Mb

 *******************************************************************************
 NEW DEFAULT: DFT INTEGRATION GRID INCREASED TO XLGRID
 NEW DEFAULT: DIIS ACCELERATOR ACTIVE
 USE KEYWORD NODIIS TO TURN IT OFF
 *******************************************************************************

 INFORMATION **** RDDFTP **** MAX N. OF POINTS ALLOWED IN A BATCH FOR NUMERICAL INTEGRATION         200
 INFORMATION **** TOLINTEG **** COULOMB AND EXCHANGE SERIES TOLERANCES MODIFIED
 INFORMATION **** TOLDEE **** SCF TOL ON TOTAL ENERGY SET TO          11
 INFORMATION **** EXCHSIZE **** EXCHANGE BIPOLAR BUFFER SIZE SET TO    12012489
 INFORMATION **** MAXCYCLE **** MAX NUMBER OF SCF CYCLES SET TO         150
 *******************************************************************************
 N. OF ATOMS PER CELL        12  COULOMB OVERLAP TOL         (T1) 10**   -7
 NUMBER OF SHELLS           156  COULOMB PENETRATION TOL     (T2) 10**   -7
 NUMBER OF AO               412  EXCHANGE OVERLAP TOL        (T3) 10**   -7
 N. OF ELECTRONS PER CELL   304  EXCHANGE PSEUDO OVP (F(G))  (T4) 10**   -9
 CORE ELECTRONS PER CELL    224  EXCHANGE PSEUDO OVP (P(G))  (T5) 10**  -30
 N. OF SYMMETRY OPERATORS    12  POLE ORDER IN MONO ZONE                  4
 *******************************************************************************
 TYPE OF CALCULATION :  UNRESTRICTED OPEN SHELL
 KOHN-SHAM HAMILTONIAN

 (EXCHANGE)[CORRELATION] FUNCTIONAL:(PERDEW-BURKE-ERNZERHOF)[PERDEW-BURKE-ERNZERHOF]


 HYBRID EXCHANGE - PERCENTAGE OF FOCK EXCHANGE    25.0000

 SPIN POLARIZED DFT SELECTED

 CAPPA:IS1  8;IS2  8;IS3  8; K PTS MONK NET  45; SYMMOPS:K SPACE  24;G SPACE  12

 *******************************************************************************
 MAX NUMBER OF SCF CYCLES     150  CONVERGENCE ON DELTAP        10**-21
 WEIGHT OF F(I) IN F(I+1)      30% CONVERGENCE ON ENERGY        10**-11
 SHRINK. FACT.(MONKH.)    8  8  8  NUMBER OF K POINTS IN THE IBZ     45
 SHRINKING FACTOR(GILAT NET)    8  NUMBER OF K POINTS(GILAT NET)     45
 *******************************************************************************
 *** K POINTS COORDINATES (OBLIQUE COORDINATES IN UNITS OF IS =  8)
   1-R(  0  0  0)   2-C(  1  0  0)   3-C(  2  0  0)   4-C(  3  0  0)
   5-R(  4  0  0)   6-C(  1  1  0)   7-C(  2  1  0)   8-C(  3  1  0)
   9-C(  4  1  0)  10-C(  1  2  0)  11-C(  2  2  0)  12-C(  3  2  0)
  13-C(  4  2  0)  14-C(  1  3  0)  15-C(  2  3  0)  16-C(  3  3  0)
  17-C(  4  3  0)  18-C(  1  4  0)  19-C(  2  4  0)  20-C(  3  4  0)
  21-R(  4  4  0)  22-C(  1  1  1)  23-C(  2  1  1)  24-C(  3  1  1)
  25-C(  4  1  1)  26-C(  2  2  1)  27-C(  3  2  1)  28-C(  4  2  1)
  29-C(  2  3  1)  30-C(  3  3  1)  31-C(  4  3  1)  32-C(  2  4  1)
  33-C(  3  4  1)  34-C(  4  4  1)  35-C(  2  2  2)  36-C(  3  2  2)
  37-C(  4  2  2)  38-C(  3  3  2)  39-C(  4  3  2)  40-C(  3  4  2)
  41-C(  4  4  2)  42-C(  3  3  3)  43-C(  4  3  3)  44-C(  4  4  3)
  45-R(  4  4  4)

 DIRECT LATTICE VECTORS COMPON. (A.U.)     RECIP. LATTICE VECTORS COMPON. (A.U.) 
        X            Y            Z              X            Y            Z
   10.5371129    0.0000000    0.0000000      0.5962910    0.0000000    0.0000000
    0.0000000   10.5371129    0.0000000      0.0000000    0.5962910    0.0000000
    0.0000000    0.0000000   10.5371129      0.0000000    0.0000000    0.5962910

 DISK SPACE FOR EIGENVECTORS (FTN 10)    14597984 REALS

 SYMMETRY ADAPTION OF THE BLOCH FUNCTIONS ENABLED
 TTTTTTTTTTTTTTTTTTTTTTTTTTTTTT gordsh1     TELAPSE        7.95 TCPU        4.91

 MATRIX SIZE: P(G) 2377420, F(G)  192176, P(G) IRR  108109, F(G) IRR   19533
 MAX G-VECTOR INDEX FOR 1- AND 2-ELECTRON INTEGRALS 279

 TTTTTTTTTTTTTTTTTTTTTTTTTTTTTT INPUT       TELAPSE        7.96 TCPU        4.92

 NEIGHBORS OF THE NON-EQUIVALENT ATOMS

 N = NUMBER OF NEIGHBORS AT DISTANCE R
    ATOM  N     R/ANG      R/AU   NEIGHBORS (ATOM LABELS AND CELL INDICES)
   1 CO   3     2.2767     4.3023   10 S    1 0 0   11 S    0 0 0   12 S    0 0-1
   1 CO   3     2.3729     4.4842    6 AS   0 0-1    7 AS   1 0-1    8 AS   1 0 0
   1 CO   3     3.5314     6.6734    6 AS   0-1-1    7 AS   1 0 0    8 AS   0 0 0
   1 CO   1     3.5734     6.7528    5 AS   0 0 0
   1 CO   3     3.6167     6.8346   10 S    1 1 0   11 S    0 0-1   12 S    1 0-1
   1 CO   1     3.7956     7.1726    9 S    1 0-1

   5 AS   1     2.2889     4.3254    9 S    0-1 0
   5 AS   3     2.3729     4.4842    2 CO   0 0 0    3 CO   0 0-1    4 CO   1-1 0
   5 AS   3     3.1354     5.9251   10 S    1 0 0   11 S    0 0 0   12 S    0 0-1
   5 AS   3     3.1650     5.9810   10 S    0 0 0   11 S    0-1 0   12 S    0 0 0
   5 AS   6     3.4155     6.4544    6 AS   0-1 0    6 AS   0-1-1    7 AS   1 0 0
                                     7 AS   0 0 0    8 AS   0 0 0    8 AS   0-1 0
   5 AS   3     3.5314     6.6734    2 CO   0-1 0    3 CO   0 0 0    4 CO   0-1 0

   9 S    3     2.2767     4.3023    2 CO   0 0 0    3 CO   0 1 0    4 CO   0 0 0
   9 S    1     2.2889     4.3254    5 AS   0 1 0
   9 S    3     3.1354     5.9251    6 AS   0 0 0    7 AS   0 1 0    8 AS   0 0 0
   9 S    3     3.1650     5.9810    6 AS  -1 0 0    7 AS   0 0 0    8 AS   0 0 1
   9 S    6     3.4169     6.4570   10 S    0 1 0   10 S    0 1 1   11 S   -1 0 0
                                    11 S    0 0 0   12 S    0 0 0   12 S    0 1 0
   9 S    3     3.6167     6.8346    2 CO   0 1 0    3 CO   0 1-1    4 CO   1 0 0


 SYMMETRY ALLOWED ELASTIC DISTORTION 1
  0.5773503  0.0000000  0.0000000
  0.0000000  0.5773503  0.0000000
  0.0000000  0.0000000  0.5773503

 SYMMETRY ALLOWED INTERNAL DEGREE(S) OF FREEDOM:   3
 TTTTTTTTTTTTTTTTTTTTTTTTTTTTTT SYMM        TELAPSE        8.00 TCPU        4.96
 TTTTTTTTTTTTTTTTTTTTTTTTTTTTTT INT_SCREEN  TELAPSE        8.02 TCPU        4.97

 *******************************************************************************
 *                             OPTIMIZATION STARTS                             *
 *******************************************************************************
 RECLASIFICATION OF INDICES FOR INTEGRAL CALC ACCORDING TO DIFFERENT CRITERIA:
           FIXDELTE                  FIXDELTX              FIXDELTN
          0.10000000               0.80000000                 10
 *******************************************************************************

 *******************************************************************************
 COORDINATE AND CELL OPTIMIZATION - POINT    1

 DFT PARAMETERS

     ATOM       ELECTRONS   NET CHARGE   R(ANGSTROM)
   1  27  CO     27.0000      0.0000     1.25000000
   5  33  AS     33.0000      0.0000     1.21000000
   9  16  S      16.0000      0.0000     1.04000000

 SIZE OF GRID=      45642
 TTTTTTTTTTTTTTTTTTTTTTTTTTTTTT MAKE_GRID2  TELAPSE       10.21 TCPU        7.15
 BECKE WEIGHT FUNCTION
 RADSAFE =     2.00
 TOLERANCES - DENSITY:10**- 6; POTENTIAL:10**- 9; GRID WGT:10**-14

 RADIAL INTEGRATION  - INTERVALS (POINTS,UPPER LIMIT):            1( 99,  4.0*R)

 ANGULAR INTEGRATION - INTERVALS (ACCURACY LEVEL [N. POINTS] UPPER LIMIT):
  1(  6[ 146]   0.2)  2( 11[ 302]   0.5)  3( 14[ 590]   0.9)  4( 18[1454]   3.5)
  5( 14[ 590]9999.0)
 TTTTTTTTTTTTTTTTTTTTTTTTTTTTTT INT_CALC    TELAPSE       10.23 TCPU        7.17

 *******************************************************************************
 ICSD_CollCode610107.cif                                                         
 CRYSTAL - SCF - TYPE OF CALCULATION :  UNRESTRICTED OPEN SHELL
 *******************************************************************************

 CAPPA:IS1  8;IS2  8;IS3  8; K PTS MONK NET  45; SYMMOPS:K SPACE  24;G SPACE  12

 TTTTTTTTTTTTTTTTTTTTTTTTTTTTTT SDIK        TELAPSE       10.28 TCPU        7.22

 AAAAAAAAAAAAAAAAAAAAAAAAAAAAAAAAAAAAAAAAAAAAAAAAAAAAAAAAAAAAAAAAAAAAAAAAAAAAAAA
         ATOMIC WAVEFUNCTION(S)


 NUCLEAR CHARGE 27.0  SYMMETRY SPECIES            S    P    D
 N. ELECTRONS   27.0  NUMBER OF PRIMITIVE GTOS   17   11    6
                      NUMBER OF CONTRACTED GTOS   6    4    3
                      NUMBER OF CLOSED SHELLS     4    2    0
                      OPEN SHELL OCCUPATION       0    0    7

  ZNUC  SCFIT    TOTAL HF ENERGY   KINETIC ENERGY   VIRIAL THEOREM             ACCURACY
  27.0    23    -1.381263068E+03  1.381163841E+03 -2.000071843E+00  4.9E-06

 NUCLEAR CHARGE 33.0  SYMMETRY SPECIES            S    P    D
 N. ELECTRONS   33.0  NUMBER OF PRIMITIVE GTOS   17   13    8
                      NUMBER OF CONTRACTED GTOS   6    5    4
                      NUMBER OF CLOSED SHELLS     4    2    1
                      OPEN SHELL OCCUPATION       0    3    0

  ZNUC  SCFIT    TOTAL HF ENERGY   KINETIC ENERGY   VIRIAL THEOREM             ACCURACY
  33.0    17    -2.234164428E+03  2.233930354E+03 -2.000104781E+00  4.0E-06

 NUCLEAR CHARGE 16.0  SYMMETRY SPECIES            S    P
 N. ELECTRONS   16.0  NUMBER OF PRIMITIVE GTOS   14    8
                      NUMBER OF CONTRACTED GTOS   5    4
                      NUMBER OF CLOSED SHELLS     3    1
                      OPEN SHELL OCCUPATION       0    4

  ZNUC  SCFIT    TOTAL HF ENERGY   KINETIC ENERGY   VIRIAL THEOREM             ACCURACY
  16.0    11    -3.974118762E+02  3.986854297E+02 -1.996805618E+00  4.0E-06

 AAAAAAAAAAAAAAAAAAAAAAAAAAAAAAAAAAAAAAAAAAAAAAAAAAAAAAAAAAAAAAAAAAAAAAAAAAAAAAA

 TTTTTTTTTTTTTTTTTTTTTTTTTTTTTT MOQGAD      TELAPSE       10.29 TCPU        7.23
 TTTTTTTTTTTTTTTTTTTTTTTTTTTTTT SHELLXN     TELAPSE       13.93 TCPU       10.85
 TTTTTTTTTTTTTTTTTTTTTTTTTTTTTT MONMO3      TELAPSE       13.94 TCPU       10.86
 NUMERICALLY INTEGRATED DENSITY    152.0000006686    152.0000006686
 TTTTTTTTTTTTTTTTTTTTTTTTTTTTTT NUMDFT      TELAPSE       14.21 TCPU       11.12
 CYC   0 ETOT(AU) -1.606693784692E+04 DETOT -1.61E+04 tst  0.00E+00 PX  1.00E+00
 TTTTTTTTTTTTTTTTTTTTTTTTTTTTTT DIIS        TELAPSE       14.23 TCPU       11.14
 TTTTTTTTTTTTTTTTTTTTTTTTTTTTTT FDIK        TELAPSE       14.41 TCPU       11.31

    ALPHA      ELECTRONS
 INSULATING STATE
 TOP OF VALENCE BANDS -    BAND    152; K   16; EIG -1.7314448E-01 AU
 TOP OF VALENCE BANDS -    BAND    152; K    1; EIG -2.0759201E-01 AU
 BOTTOM OF VIRTUAL BANDS - BAND    153; K    2; EIG -1.4178259E-01 AU
 INDIRECT ENERGY BAND GAP:   0.8534 eV
 BOTTOM OF VIRTUAL BANDS - BAND    153; K    1; EIG -1.4035706E-01 AU

    BETA       ELECTRONS
 INSULATING STATE
 TOP OF VALENCE BANDS -    BAND    152; K   16; EIG -1.7314448E-01 AU
 TOP OF VALENCE BANDS -    BAND    152; K    1; EIG -2.0759201E-01 AU
 BOTTOM OF VIRTUAL BANDS - BAND    153; K    2; EIG -1.4178259E-01 AU
 INDIRECT ENERGY BAND GAP:   0.8534 eV
 BOTTOM OF VIRTUAL BANDS - BAND    153; K    1; EIG -1.4035706E-01 AU
 TTTTTTTTTTTTTTTTTTTTTTTTTTTTTT PDIG        TELAPSE       14.56 TCPU       11.46
 TTTTTTTTTTTTTTTTTTTTTTTTTTTTTT MOQGAD      TELAPSE       14.56 TCPU       11.46
 TTTTTTTTTTTTTTTTTTTTTTTTTTTTTT SHELLXN     TELAPSE       18.47 TCPU       15.34
 TTTTTTTTTTTTTTTTTTTTTTTTTTTTTT MONMO3      TELAPSE       18.48 TCPU       15.35
 NUMERICALLY INTEGRATED DENSITY    151.9999998690    151.9999998690
 TTTTTTTTTTTTTTTTTTTTTTTTTTTTTT NUMDFT      TELAPSE       18.74 TCPU       15.61
 CYC   1 ETOT(AU) -1.606502953068E+04 DETOT  1.91E+00 tst  0.00E+00 PX  1.00E+00
 TTTTTTTTTTTTTTTTTTTTTTTTTTTTTT DIIS        TELAPSE       18.76 TCPU       15.63
 DIIS TEST: 0.13853E+01 AT SCF   CYCLE   1 - MIX   30 %
 TTTTTTTTTTTTTTTTTTTTTTTTTTTTTT FDIK        TELAPSE       18.94 TCPU       15.81

    ALPHA      ELECTRONS
 INSULATING STATE
 TOP OF VALENCE BANDS -    BAND    152; K   16; EIG -1.5991846E-01 AU
 TOP OF VALENCE BANDS -    BAND    152; K    1; EIG -1.8490752E-01 AU
 BOTTOM OF VIRTUAL BANDS - BAND    153; K    2; EIG -8.5707532E-02 AU
 INDIRECT ENERGY BAND GAP:   2.0194 eV
 BOTTOM OF VIRTUAL BANDS - BAND    153; K    1; EIG -8.5089962E-02 AU

    BETA       ELECTRONS
 INSULATING STATE
 TOP OF VALENCE BANDS -    BAND    152; K   16; EIG -1.5991846E-01 AU
 TOP OF VALENCE BANDS -    BAND    152; K    1; EIG -1.8490752E-01 AU
 BOTTOM OF VIRTUAL BANDS - BAND    153; K    2; EIG -8.5707532E-02 AU
 INDIRECT ENERGY BAND GAP:   2.0194 eV
 BOTTOM OF VIRTUAL BANDS - BAND    153; K    1; EIG -8.5089962E-02 AU
 TTTTTTTTTTTTTTTTTTTTTTTTTTTTTT PDIG        TELAPSE       19.09 TCPU       15.95
 TTTTTTTTTTTTTTTTTTTTTTTTTTTTTT MOQGAD      TELAPSE       19.09 TCPU       15.96
 TTTTTTTTTTTTTTTTTTTTTTTTTTTTTT SHELLXN     TELAPSE       22.95 TCPU       19.78
 TTTTTTTTTTTTTTTTTTTTTTTTTTTTTT MONMO3      TELAPSE       22.95 TCPU       19.79
 NUMERICALLY INTEGRATED DENSITY    151.9999993717    151.9999993717
 TTTTTTTTTTTTTTTTTTTTTTTTTTTTTT NUMDFT      TELAPSE       23.22 TCPU       20.05
 CYC   2 ETOT(AU) -1.606492282954E+04 DETOT  1.07E-01 tst  3.75E-03 PX  1.07E-01
 TTTTTTTTTTTTTTTTTTTTTTTTTTTTTT DIIS        TELAPSE       23.23 TCPU       20.07
 DIIS TEST: 0.79889E+01 AT SCF   CYCLE   2 - DIIS ACTIVE - HISTORY:     2 CYCLES
 TTTTTTTTTTTTTTTTTTTTTTTTTTTTTT FDIK        TELAPSE       23.42 TCPU       20.25

    ALPHA      ELECTRONS
 INSULATING STATE
 TOP OF VALENCE BANDS -    BAND    152; K   16; EIG -1.6808029E-01 AU
 TOP OF VALENCE BANDS -    BAND    152; K    1; EIG -2.0707865E-01 AU
 BOTTOM OF VIRTUAL BANDS - BAND    153; K    2; EIG -1.0676158E-01 AU
 INDIRECT ENERGY BAND GAP:   1.6686 eV
 BOTTOM OF VIRTUAL BANDS - BAND    153; K    1; EIG -1.0645491E-01 AU

    BETA       ELECTRONS
 INSULATING STATE
 TOP OF VALENCE BANDS -    BAND    152; K   16; EIG -1.6808029E-01 AU
 TOP OF VALENCE BANDS -    BAND    152; K    1; EIG -2.0707865E-01 AU
 BOTTOM OF VIRTUAL BANDS - BAND    153; K    2; EIG -1.0676158E-01 AU
 INDIRECT ENERGY BAND GAP:   1.6686 eV
 BOTTOM OF VIRTUAL BANDS - BAND    153; K    1; EIG -1.0645491E-01 AU
 TTTTTTTTTTTTTTTTTTTTTTTTTTTTTT PDIG        TELAPSE       23.56 TCPU       20.39
 TTTTTTTTTTTTTTTTTTTTTTTTTTTTTT MOQGAD      TELAPSE       23.57 TCPU       20.39
 TTTTTTTTTTTTTTTTTTTTTTTTTTTTTT SHELLXN     TELAPSE       27.43 TCPU       24.23
 TTTTTTTTTTTTTTTTTTTTTTTTTTTTTT MONMO3      TELAPSE       27.44 TCPU       24.24
 NUMERICALLY INTEGRATED DENSITY    151.9999994493    151.9999994493
 TTTTTTTTTTTTTTTTTTTTTTTTTTTTTT NUMDFT      TELAPSE       27.71 TCPU       24.50
 CYC   3 ETOT(AU) -1.606509483707E+04 DETOT -1.72E-01 tst  1.28E-03 PX  5.41E-02
 TTTTTTTTTTTTTTTTTTTTTTTTTTTTTT DIIS        TELAPSE       27.74 TCPU       24.53
 DIIS TEST: 0.17090E+01 AT SCF   CYCLE   3 - DIIS ACTIVE - HISTORY:     3 CYCLES
 TTTTTTTTTTTTTTTTTTTTTTTTTTTTTT FDIK        TELAPSE       27.92 TCPU       24.71

    ALPHA      ELECTRONS
 INSULATING STATE
 TOP OF VALENCE BANDS -    BAND    152; K   16; EIG -1.6426587E-01 AU
 TOP OF VALENCE BANDS -    BAND    152; K    1; EIG -2.0015157E-01 AU
 BOTTOM OF VIRTUAL BANDS - BAND    153; K    2; EIG -8.7312175E-02 AU
 INDIRECT ENERGY BAND GAP:   2.0940 eV
 BOTTOM OF VIRTUAL BANDS - BAND    153; K    1; EIG -8.6528183E-02 AU

    BETA       ELECTRONS
 INSULATING STATE
 TOP OF VALENCE BANDS -    BAND    152; K   16; EIG -1.6426587E-01 AU
 TOP OF VALENCE BANDS -    BAND    152; K    1; EIG -2.0015157E-01 AU
 BOTTOM OF VIRTUAL BANDS - BAND    153; K    2; EIG -8.7312175E-02 AU
 INDIRECT ENERGY BAND GAP:   2.0940 eV
 BOTTOM OF VIRTUAL BANDS - BAND    153; K    1; EIG -8.6528183E-02 AU
 TTTTTTTTTTTTTTTTTTTTTTTTTTTTTT PDIG        TELAPSE       28.07 TCPU       24.85
 TTTTTTTTTTTTTTTTTTTTTTTTTTTTTT MOQGAD      TELAPSE       28.07 TCPU       24.86
 TTTTTTTTTTTTTTTTTTTTTTTTTTTTTT SHELLXN     TELAPSE       31.93 TCPU       28.70
 TTTTTTTTTTTTTTTTTTTTTTTTTTTTTT MONMO3      TELAPSE       31.94 TCPU       28.71
 NUMERICALLY INTEGRATED DENSITY    151.9999995731    151.9999995731
 TTTTTTTTTTTTTTTTTTTTTTTTTTTTTT NUMDFT      TELAPSE       32.21 TCPU       28.97
 CYC   4 ETOT(AU) -1.606514264240E+04 DETOT -4.78E-02 tst  6.76E-04 PX  4.83E-02
 TTTTTTTTTTTTTTTTTTTTTTTTTTTTTT DIIS        TELAPSE       32.22 TCPU       28.98
 DIIS TEST: 0.32257E+00 AT SCF   CYCLE   4 - DIIS ACTIVE - HISTORY:     4 CYCLES
 TTTTTTTTTTTTTTTTTTTTTTTTTTTTTT FDIK        TELAPSE       32.41 TCPU       29.17

    ALPHA      ELECTRONS
 INSULATING STATE
 TOP OF VALENCE BANDS -    BAND    152; K   16; EIG -1.6468330E-01 AU
 TOP OF VALENCE BANDS -    BAND    152; K    1; EIG -1.9918517E-01 AU
 BOTTOM OF VIRTUAL BANDS - BAND    153; K    2; EIG -8.6773534E-02 AU
 INDIRECT ENERGY BAND GAP:   2.1200 eV
 BOTTOM OF VIRTUAL BANDS - BAND    153; K    1; EIG -8.6105623E-02 AU

    BETA       ELECTRONS
 INSULATING STATE
 TOP OF VALENCE BANDS -    BAND    152; K   16; EIG -1.6468330E-01 AU
 TOP OF VALENCE BANDS -    BAND    152; K    1; EIG -1.9918517E-01 AU
 BOTTOM OF VIRTUAL BANDS - BAND    153; K    2; EIG -8.6773534E-02 AU
 INDIRECT ENERGY BAND GAP:   2.1200 eV
 BOTTOM OF VIRTUAL BANDS - BAND    153; K    1; EIG -8.6105623E-02 AU
 TTTTTTTTTTTTTTTTTTTTTTTTTTTTTT PDIG        TELAPSE       32.63 TCPU       29.38
 TTTTTTTTTTTTTTTTTTTTTTTTTTTTTT MOQGAD      TELAPSE       32.63 TCPU       29.38
 TTTTTTTTTTTTTTTTTTTTTTTTTTTTTT SHELLXN     TELAPSE       36.50 TCPU       33.22
 TTTTTTTTTTTTTTTTTTTTTTTTTTTTTT MONMO3      TELAPSE       36.51 TCPU       33.23
 NUMERICALLY INTEGRATED DENSITY    151.9999995760    151.9999995760
 TTTTTTTTTTTTTTTTTTTTTTTTTTTTTT NUMDFT      TELAPSE       36.78 TCPU       33.49
 CYC   5 ETOT(AU) -1.606515350553E+04 DETOT -1.09E-02 tst  1.58E-04 PX  1.51E-02
 TTTTTTTTTTTTTTTTTTTTTTTTTTTTTT DIIS        TELAPSE       36.80 TCPU       33.50
 DIIS TEST: 0.25653E-02 AT SCF   CYCLE   5 - DIIS ACTIVE - HISTORY:     5 CYCLES
 TTTTTTTTTTTTTTTTTTTTTTTTTTTTTT FDIK        TELAPSE       36.98 TCPU       33.68

    ALPHA      ELECTRONS
 INSULATING STATE
 TOP OF VALENCE BANDS -    BAND    152; K   16; EIG -1.6527767E-01 AU
 TOP OF VALENCE BANDS -    BAND    152; K    1; EIG -1.9950956E-01 AU
 BOTTOM OF VIRTUAL BANDS - BAND    153; K    2; EIG -8.5052501E-02 AU
 INDIRECT ENERGY BAND GAP:   2.1830 eV
 BOTTOM OF VIRTUAL BANDS - BAND    153; K    1; EIG -8.4390375E-02 AU

    BETA       ELECTRONS
 INSULATING STATE
 TOP OF VALENCE BANDS -    BAND    152; K   16; EIG -1.6527767E-01 AU
 TOP OF VALENCE BANDS -    BAND    152; K    1; EIG -1.9950956E-01 AU
 BOTTOM OF VIRTUAL BANDS - BAND    153; K    2; EIG -8.5052501E-02 AU
 INDIRECT ENERGY BAND GAP:   2.1830 eV
 BOTTOM OF VIRTUAL BANDS - BAND    153; K    1; EIG -8.4390375E-02 AU
 TTTTTTTTTTTTTTTTTTTTTTTTTTTTTT PDIG        TELAPSE       37.13 TCPU       33.84
 TTTTTTTTTTTTTTTTTTTTTTTTTTTTTT MOQGAD      TELAPSE       37.14 TCPU       33.84
 TTTTTTTTTTTTTTTTTTTTTTTTTTTTTT SHELLXN     TELAPSE       41.01 TCPU       37.68
 TTTTTTTTTTTTTTTTTTTTTTTTTTTTTT MONMO3      TELAPSE       41.02 TCPU       37.69
 NUMERICALLY INTEGRATED DENSITY    151.9999995779    151.9999995779
 TTTTTTTTTTTTTTTTTTTTTTTTTTTTTT NUMDFT      TELAPSE       41.29 TCPU       37.96
 CYC   6 ETOT(AU) -1.606515384674E+04 DETOT -3.41E-04 tst  2.47E-05 PX  4.02E-03
 TTTTTTTTTTTTTTTTTTTTTTTTTTTTTT DIIS        TELAPSE       41.31 TCPU       37.98
 DIIS TEST: 0.21086E-02 AT SCF   CYCLE   6 - DIIS ACTIVE - HISTORY:     6 CYCLES
 TTTTTTTTTTTTTTTTTTTTTTTTTTTTTT FDIK        TELAPSE       41.49 TCPU       38.16

    ALPHA      ELECTRONS
 INSULATING STATE
 TOP OF VALENCE BANDS -    BAND    152; K   16; EIG -1.6510416E-01 AU
 TOP OF VALENCE BANDS -    BAND    152; K    1; EIG -1.9927892E-01 AU
 BOTTOM OF VIRTUAL BANDS - BAND    153; K    2; EIG -8.5106237E-02 AU
 INDIRECT ENERGY BAND GAP:   2.1769 eV
 BOTTOM OF VIRTUAL BANDS - BAND    153; K    1; EIG -8.4468965E-02 AU

    BETA       ELECTRONS
 INSULATING STATE
 TOP OF VALENCE BANDS -    BAND    152; K   16; EIG -1.6510416E-01 AU
 TOP OF VALENCE BANDS -    BAND    152; K    1; EIG -1.9927892E-01 AU
 BOTTOM OF VIRTUAL BANDS - BAND    153; K    2; EIG -8.5106237E-02 AU
 INDIRECT ENERGY BAND GAP:   2.1769 eV
 BOTTOM OF VIRTUAL BANDS - BAND    153; K    1; EIG -8.4468965E-02 AU
 TTTTTTTTTTTTTTTTTTTTTTTTTTTTTT PDIG        TELAPSE       41.64 TCPU       38.30
 TTTTTTTTTTTTTTTTTTTTTTTTTTTTTT MOQGAD      TELAPSE       41.64 TCPU       38.31
 TTTTTTTTTTTTTTTTTTTTTTTTTTTTTT SHELLXN     TELAPSE       45.50 TCPU       42.14
 TTTTTTTTTTTTTTTTTTTTTTTTTTTTTT MONMO3      TELAPSE       45.51 TCPU       42.15
 NUMERICALLY INTEGRATED DENSITY    151.9999995760    151.9999995760
 TTTTTTTTTTTTTTTTTTTTTTTTTTTTTT NUMDFT      TELAPSE       45.78 TCPU       42.40
 CYC   7 ETOT(AU) -1.606515392331E+04 DETOT -7.66E-05 tst  1.07E-06 PX  1.97E-03
 TTTTTTTTTTTTTTTTTTTTTTTTTTTTTT DIIS        TELAPSE       45.79 TCPU       42.42
 DIIS TEST: 0.15237E-03 AT SCF   CYCLE   7 - DIIS ACTIVE - HISTORY:     7 CYCLES
 TTTTTTTTTTTTTTTTTTTTTTTTTTTTTT FDIK        TELAPSE       45.98 TCPU       42.60

    ALPHA      ELECTRONS
 INSULATING STATE
 TOP OF VALENCE BANDS -    BAND    152; K   16; EIG -1.6513058E-01 AU
 TOP OF VALENCE BANDS -    BAND    152; K    1; EIG -1.9925482E-01 AU
 BOTTOM OF VIRTUAL BANDS - BAND    153; K    2; EIG -8.5224579E-02 AU
 INDIRECT ENERGY BAND GAP:   2.1744 eV
 BOTTOM OF VIRTUAL BANDS - BAND    153; K    1; EIG -8.4585899E-02 AU

    BETA       ELECTRONS
 INSULATING STATE
 TOP OF VALENCE BANDS -    BAND    152; K   16; EIG -1.6513058E-01 AU
 TOP OF VALENCE BANDS -    BAND    152; K    1; EIG -1.9925482E-01 AU
 BOTTOM OF VIRTUAL BANDS - BAND    153; K    2; EIG -8.5224579E-02 AU
 INDIRECT ENERGY BAND GAP:   2.1744 eV
 BOTTOM OF VIRTUAL BANDS - BAND    153; K    1; EIG -8.4585899E-02 AU
 TTTTTTTTTTTTTTTTTTTTTTTTTTTTTT PDIG        TELAPSE       46.12 TCPU       42.75
 TTTTTTTTTTTTTTTTTTTTTTTTTTTTTT MOQGAD      TELAPSE       46.12 TCPU       42.75
 TTTTTTTTTTTTTTTTTTTTTTTTTTTTTT SHELLXN     TELAPSE       49.99 TCPU       46.58
 TTTTTTTTTTTTTTTTTTTTTTTTTTTTTT MONMO3      TELAPSE       50.00 TCPU       46.59
 NUMERICALLY INTEGRATED DENSITY    151.9999995779    151.9999995779
 TTTTTTTTTTTTTTTTTTTTTTTTTTTTTT NUMDFT      TELAPSE       50.26 TCPU       46.85
 CYC   8 ETOT(AU) -1.606515393474E+04 DETOT -1.14E-05 tst  9.83E-08 PX  4.18E-04
 TTTTTTTTTTTTTTTTTTTTTTTTTTTTTT DIIS        TELAPSE       50.28 TCPU       46.87
 DIIS TEST: 0.20008E-05 AT SCF   CYCLE   8 - DIIS ACTIVE - HISTORY:     8 CYCLES
 TTTTTTTTTTTTTTTTTTTTTTTTTTTTTT FDIK        TELAPSE       50.46 TCPU       47.05

    ALPHA      ELECTRONS
 INSULATING STATE
 TOP OF VALENCE BANDS -    BAND    152; K   16; EIG -1.6512914E-01 AU
 TOP OF VALENCE BANDS -    BAND    152; K    1; EIG -1.9925852E-01 AU
 BOTTOM OF VIRTUAL BANDS - BAND    153; K    2; EIG -8.5233143E-02 AU
 INDIRECT ENERGY BAND GAP:   2.1741 eV
 BOTTOM OF VIRTUAL BANDS - BAND    153; K    1; EIG -8.4595342E-02 AU

    BETA       ELECTRONS
 INSULATING STATE
 TOP OF VALENCE BANDS -    BAND    152; K   16; EIG -1.6512914E-01 AU
 TOP OF VALENCE BANDS -    BAND    152; K    1; EIG -1.9925852E-01 AU
 BOTTOM OF VIRTUAL BANDS - BAND    153; K    2; EIG -8.5233143E-02 AU
 INDIRECT ENERGY BAND GAP:   2.1741 eV
 BOTTOM OF VIRTUAL BANDS - BAND    153; K    1; EIG -8.4595342E-02 AU
 TTTTTTTTTTTTTTTTTTTTTTTTTTTTTT PDIG        TELAPSE       50.61 TCPU       47.19
 TTTTTTTTTTTTTTTTTTTTTTTTTTTTTT MOQGAD      TELAPSE       50.61 TCPU       47.20
 TTTTTTTTTTTTTTTTTTTTTTTTTTTTTT SHELLXN     TELAPSE       54.47 TCPU       51.03
 TTTTTTTTTTTTTTTTTTTTTTTTTTTTTT MONMO3      TELAPSE       54.48 TCPU       51.04
 NUMERICALLY INTEGRATED DENSITY    151.9999995775    151.9999995775
 TTTTTTTTTTTTTTTTTTTTTTTTTTTTTT NUMDFT      TELAPSE       54.74 TCPU       51.30
 CYC   9 ETOT(AU) -1.606515393455E+04 DETOT  1.88E-07 tst  7.66E-09 PX  1.22E-04
 TTTTTTTTTTTTTTTTTTTTTTTTTTTTTT DIIS        TELAPSE       54.76 TCPU       51.32
 DIIS TEST: 0.26673E-06 AT SCF   CYCLE   9 - DIIS ACTIVE - HISTORY:     9 CYCLES
 TTTTTTTTTTTTTTTTTTTTTTTTTTTTTT FDIK        TELAPSE       54.94 TCPU       51.50

    ALPHA      ELECTRONS
 INSULATING STATE
 TOP OF VALENCE BANDS -    BAND    152; K   16; EIG -1.6512658E-01 AU
 TOP OF VALENCE BANDS -    BAND    152; K    1; EIG -1.9925175E-01 AU
 BOTTOM OF VIRTUAL BANDS - BAND    153; K    2; EIG -8.5247835E-02 AU
 INDIRECT ENERGY BAND GAP:   2.1736 eV
 BOTTOM OF VIRTUAL BANDS - BAND    153; K    1; EIG -8.4610783E-02 AU

    BETA       ELECTRONS
 INSULATING STATE
 TOP OF VALENCE BANDS -    BAND    152; K   16; EIG -1.6512658E-01 AU
 TOP OF VALENCE BANDS -    BAND    152; K    1; EIG -1.9925175E-01 AU
 BOTTOM OF VIRTUAL BANDS - BAND    153; K    2; EIG -8.5247835E-02 AU
 INDIRECT ENERGY BAND GAP:   2.1736 eV
 BOTTOM OF VIRTUAL BANDS - BAND    153; K    1; EIG -8.4610783E-02 AU
 TTTTTTTTTTTTTTTTTTTTTTTTTTTTTT PDIG        TELAPSE       55.09 TCPU       51.64
 TTTTTTTTTTTTTTTTTTTTTTTTTTTTTT MOQGAD      TELAPSE       55.09 TCPU       51.64
 TTTTTTTTTTTTTTTTTTTTTTTTTTTTTT SHELLXN     TELAPSE       58.95 TCPU       55.48
 TTTTTTTTTTTTTTTTTTTTTTTTTTTTTT MONMO3      TELAPSE       58.96 TCPU       55.49
 NUMERICALLY INTEGRATED DENSITY    151.9999995773    151.9999995773
 TTTTTTTTTTTTTTTTTTTTTTTTTTTTTT NUMDFT      TELAPSE       59.22 TCPU       55.74
 CYC  10 ETOT(AU) -1.606515393445E+04 DETOT  1.00E-07 tst  7.12E-09 PX  9.90E-05
 TTTTTTTTTTTTTTTTTTTTTTTTTTTTTT DIIS        TELAPSE       59.24 TCPU       55.76
 DIIS TEST: 0.49889E-07 AT SCF   CYCLE  10 - DIIS ACTIVE - HISTORY:    10 CYCLES
 TTTTTTTTTTTTTTTTTTTTTTTTTTTTTT FDIK        TELAPSE       59.42 TCPU       55.94

    ALPHA      ELECTRONS
 INSULATING STATE
 TOP OF VALENCE BANDS -    BAND    152; K   16; EIG -1.6512637E-01 AU
 TOP OF VALENCE BANDS -    BAND    152; K    1; EIG -1.9925027E-01 AU
 BOTTOM OF VIRTUAL BANDS - BAND    153; K    2; EIG -8.5256986E-02 AU
 INDIRECT ENERGY BAND GAP:   2.1734 eV
 BOTTOM OF VIRTUAL BANDS - BAND    153; K    1; EIG -8.4620082E-02 AU

    BETA       ELECTRONS
 INSULATING STATE
 TOP OF VALENCE BANDS -    BAND    152; K   16; EIG -1.6512637E-01 AU
 TOP OF VALENCE BANDS -    BAND    152; K    1; EIG -1.9925027E-01 AU
 BOTTOM OF VIRTUAL BANDS - BAND    153; K    2; EIG -8.5256986E-02 AU
 INDIRECT ENERGY BAND GAP:   2.1734 eV
 BOTTOM OF VIRTUAL BANDS - BAND    153; K    1; EIG -8.4620082E-02 AU
 TTTTTTTTTTTTTTTTTTTTTTTTTTTTTT PDIG        TELAPSE       59.57 TCPU       56.09
 TTTTTTTTTTTTTTTTTTTTTTTTTTTTTT MOQGAD      TELAPSE       59.57 TCPU       56.09
 TTTTTTTTTTTTTTTTTTTTTTTTTTTTTT SHELLXN     TELAPSE       63.43 TCPU       59.91
 TTTTTTTTTTTTTTTTTTTTTTTTTTTTTT MONMO3      TELAPSE       63.44 TCPU       59.92
 NUMERICALLY INTEGRATED DENSITY    151.9999995772    151.9999995772
 TTTTTTTTTTTTTTTTTTTTTTTTTTTTTT NUMDFT      TELAPSE       63.70 TCPU       60.18
 CYC  11 ETOT(AU) -1.606515393448E+04 DETOT -2.89E-08 tst  9.24E-10 PX  3.00E-05
 TTTTTTTTTTTTTTTTTTTTTTTTTTTTTT DIIS        TELAPSE       63.72 TCPU       60.20
 DIIS TEST: 0.34196E-08 AT SCF   CYCLE  11 - DIIS ACTIVE - HISTORY:    11 CYCLES
 TTTTTTTTTTTTTTTTTTTTTTTTTTTTTT FDIK        TELAPSE       63.91 TCPU       60.38

    ALPHA      ELECTRONS
 INSULATING STATE
 TOP OF VALENCE BANDS -    BAND    152; K   16; EIG -1.6512681E-01 AU
 TOP OF VALENCE BANDS -    BAND    152; K    1; EIG -1.9924982E-01 AU
 BOTTOM OF VIRTUAL BANDS - BAND    153; K    2; EIG -8.5261054E-02 AU
 INDIRECT ENERGY BAND GAP:   2.1733 eV
 BOTTOM OF VIRTUAL BANDS - BAND    153; K    1; EIG -8.4624249E-02 AU

    BETA       ELECTRONS
 INSULATING STATE
 TOP OF VALENCE BANDS -    BAND    152; K   16; EIG -1.6512681E-01 AU
 TOP OF VALENCE BANDS -    BAND    152; K    1; EIG -1.9924982E-01 AU
 BOTTOM OF VIRTUAL BANDS - BAND    153; K    2; EIG -8.5261054E-02 AU
 INDIRECT ENERGY BAND GAP:   2.1733 eV
 BOTTOM OF VIRTUAL BANDS - BAND    153; K    1; EIG -8.4624249E-02 AU
 TTTTTTTTTTTTTTTTTTTTTTTTTTTTTT PDIG        TELAPSE       64.05 TCPU       60.53
 TTTTTTTTTTTTTTTTTTTTTTTTTTTTTT MOQGAD      TELAPSE       64.05 TCPU       60.53
 TTTTTTTTTTTTTTTTTTTTTTTTTTTTTT SHELLXN     TELAPSE       67.91 TCPU       64.36
 TTTTTTTTTTTTTTTTTTTTTTTTTTTTTT MONMO3      TELAPSE       67.92 TCPU       64.37
 NUMERICALLY INTEGRATED DENSITY    151.9999995772    151.9999995772
 TTTTTTTTTTTTTTTTTTTTTTTTTTTTTT NUMDFT      TELAPSE       68.19 TCPU       64.63
 CYC  12 ETOT(AU) -1.606515393448E+04 DETOT -6.92E-09 tst  1.40E-10 PX  1.40E-05
 TTTTTTTTTTTTTTTTTTTTTTTTTTTTTT DIIS        TELAPSE       68.21 TCPU       64.65
 DIIS TEST: 0.29001E-09 AT SCF   CYCLE  12 - DIIS ACTIVE - HISTORY:    12 CYCLES
 TTTTTTTTTTTTTTTTTTTTTTTTTTTTTT FDIK        TELAPSE       68.39 TCPU       64.83

    ALPHA      ELECTRONS
 INSULATING STATE
 TOP OF VALENCE BANDS -    BAND    152; K   16; EIG -1.6512658E-01 AU
 TOP OF VALENCE BANDS -    BAND    152; K    1; EIG -1.9924947E-01 AU
 BOTTOM OF VIRTUAL BANDS - BAND    153; K    2; EIG -8.5261482E-02 AU
 INDIRECT ENERGY BAND GAP:   2.1732 eV
 BOTTOM OF VIRTUAL BANDS - BAND    153; K    1; EIG -8.4624693E-02 AU

    BETA       ELECTRONS
 INSULATING STATE
 TOP OF VALENCE BANDS -    BAND    152; K   16; EIG -1.6512658E-01 AU
 TOP OF VALENCE BANDS -    BAND    152; K    1; EIG -1.9924947E-01 AU
 BOTTOM OF VIRTUAL BANDS - BAND    153; K    2; EIG -8.5261482E-02 AU
 INDIRECT ENERGY BAND GAP:   2.1732 eV
 BOTTOM OF VIRTUAL BANDS - BAND    153; K    1; EIG -8.4624693E-02 AU
 TTTTTTTTTTTTTTTTTTTTTTTTTTTTTT PDIG        TELAPSE       68.54 TCPU       64.97
 TTTTTTTTTTTTTTTTTTTTTTTTTTTTTT MOQGAD      TELAPSE       68.54 TCPU       64.98
 TTTTTTTTTTTTTTTTTTTTTTTTTTTTTT SHELLXN     TELAPSE       72.40 TCPU       68.80
 TTTTTTTTTTTTTTTTTTTTTTTTTTTTTT MONMO3      TELAPSE       72.41 TCPU       68.81
 NUMERICALLY INTEGRATED DENSITY    151.9999995772    151.9999995772
 TTTTTTTTTTTTTTTTTTTTTTTTTTTTTT NUMDFT      TELAPSE       72.67 TCPU       69.07
 CYC  13 ETOT(AU) -1.606515393447E+04 DETOT  9.62E-09 tst  7.01E-12 PX  2.81E-06
 TTTTTTTTTTTTTTTTTTTTTTTTTTTTTT DIIS        TELAPSE       72.69 TCPU       69.09
 DIIS TEST: 0.34612E-10 AT SCF   CYCLE  13 - DIIS ACTIVE - HISTORY:    13 CYCLES
 TTTTTTTTTTTTTTTTTTTTTTTTTTTTTT FDIK        TELAPSE       72.88 TCPU       69.24

    ALPHA      ELECTRONS
 INSULATING STATE
 TOP OF VALENCE BANDS -    BAND    152; K   16; EIG -1.6512653E-01 AU
 TOP OF VALENCE BANDS -    BAND    152; K    1; EIG -1.9924941E-01 AU
 BOTTOM OF VIRTUAL BANDS - BAND    153; K    2; EIG -8.5261415E-02 AU
 INDIRECT ENERGY BAND GAP:   2.1732 eV
 BOTTOM OF VIRTUAL BANDS - BAND    153; K    1; EIG -8.4624629E-02 AU

    BETA       ELECTRONS
 INSULATING STATE
 TOP OF VALENCE BANDS -    BAND    152; K   16; EIG -1.6512653E-01 AU
 TOP OF VALENCE BANDS -    BAND    152; K    1; EIG -1.9924941E-01 AU
 BOTTOM OF VIRTUAL BANDS - BAND    153; K    2; EIG -8.5261415E-02 AU
 INDIRECT ENERGY BAND GAP:   2.1732 eV
 BOTTOM OF VIRTUAL BANDS - BAND    153; K    1; EIG -8.4624629E-02 AU
 TTTTTTTTTTTTTTTTTTTTTTTTTTTTTT PDIG        TELAPSE       73.02 TCPU       69.39
 TTTTTTTTTTTTTTTTTTTTTTTTTTTTTT MOQGAD      TELAPSE       73.02 TCPU       69.39
 TTTTTTTTTTTTTTTTTTTTTTTTTTTTTT SHELLXN     TELAPSE       76.88 TCPU       73.22
 TTTTTTTTTTTTTTTTTTTTTTTTTTTTTT MONMO3      TELAPSE       76.89 TCPU       73.23
 NUMERICALLY INTEGRATED DENSITY    151.9999995772    151.9999995772
 TTTTTTTTTTTTTTTTTTTTTTTTTTTTTT NUMDFT      TELAPSE       77.15 TCPU       73.49
 CYC  14 ETOT(AU) -1.606515393447E+04 DETOT  3.69E-09 tst  1.70E-13 PX  3.57E-07
 TTTTTTTTTTTTTTTTTTTTTTTTTTTTTT DIIS        TELAPSE       77.17 TCPU       73.51
 DIIS TEST: 0.76543E-12 AT SCF   CYCLE  14 - DIIS ACTIVE - HISTORY:    14 CYCLES
 TTTTTTTTTTTTTTTTTTTTTTTTTTTTTT FDIK        TELAPSE       77.35 TCPU       73.69

    ALPHA      ELECTRONS
 INSULATING STATE
 TOP OF VALENCE BANDS -    BAND    152; K   16; EIG -1.6512654E-01 AU
 TOP OF VALENCE BANDS -    BAND    152; K    1; EIG -1.9924942E-01 AU
 BOTTOM OF VIRTUAL BANDS - BAND    153; K    2; EIG -8.5261435E-02 AU
 INDIRECT ENERGY BAND GAP:   2.1732 eV
 BOTTOM OF VIRTUAL BANDS - BAND    153; K    1; EIG -8.4624650E-02 AU

    BETA       ELECTRONS
 INSULATING STATE
 TOP OF VALENCE BANDS -    BAND    152; K   16; EIG -1.6512654E-01 AU
 TOP OF VALENCE BANDS -    BAND    152; K    1; EIG -1.9924942E-01 AU
 BOTTOM OF VIRTUAL BANDS - BAND    153; K    2; EIG -8.5261435E-02 AU
 INDIRECT ENERGY BAND GAP:   2.1732 eV
 BOTTOM OF VIRTUAL BANDS - BAND    153; K    1; EIG -8.4624650E-02 AU
 TTTTTTTTTTTTTTTTTTTTTTTTTTTTTT PDIG        TELAPSE       77.50 TCPU       73.83
 TTTTTTTTTTTTTTTTTTTTTTTTTTTTTT MOQGAD      TELAPSE       77.50 TCPU       73.83
 TTTTTTTTTTTTTTTTTTTTTTTTTTTTTT SHELLXN     TELAPSE       81.37 TCPU       77.67
 TTTTTTTTTTTTTTTTTTTTTTTTTTTTTT MONMO3      TELAPSE       81.38 TCPU       77.68
 NUMERICALLY INTEGRATED DENSITY    151.9999995772    151.9999995772
 TTTTTTTTTTTTTTTTTTTTTTTTTTTTTT NUMDFT      TELAPSE       81.64 TCPU       77.94
 CYC  15 ETOT(AU) -1.606515393447E+04 DETOT  1.64E-11 tst  8.86E-16 PX  2.64E-08
 TTTTTTTTTTTTTTTTTTTTTTTTTTTTTT DIIS        TELAPSE       81.69 TCPU       77.98
 DIIS TEST: 0.38956E-14 AT SCF   CYCLE  15 - DIIS ACTIVE - HISTORY:    15 CYCLES
 TTTTTTTTTTTTTTTTTTTTTTTTTTTTTT FDIK        TELAPSE       81.87 TCPU       78.16

    ALPHA      ELECTRONS
 INSULATING STATE
 TOP OF VALENCE BANDS -    BAND    152; K   16; EIG -1.6512654E-01 AU
 TOP OF VALENCE BANDS -    BAND    152; K    1; EIG -1.9924942E-01 AU
 BOTTOM OF VIRTUAL BANDS - BAND    153; K    2; EIG -8.5261436E-02 AU
 INDIRECT ENERGY BAND GAP:   2.1732 eV
 BOTTOM OF VIRTUAL BANDS - BAND    153; K    1; EIG -8.4624651E-02 AU

    BETA       ELECTRONS
 INSULATING STATE
 TOP OF VALENCE BANDS -    BAND    152; K   16; EIG -1.6512654E-01 AU
 TOP OF VALENCE BANDS -    BAND    152; K    1; EIG -1.9924942E-01 AU
 BOTTOM OF VIRTUAL BANDS - BAND    153; K    2; EIG -8.5261436E-02 AU
 INDIRECT ENERGY BAND GAP:   2.1732 eV
 BOTTOM OF VIRTUAL BANDS - BAND    153; K    1; EIG -8.4624651E-02 AU
 TTTTTTTTTTTTTTTTTTTTTTTTTTTTTT PDIG        TELAPSE       82.01 TCPU       78.31
 TTTTTTTTTTTTTTTTTTTTTTTTTTTTTT MOQGAD      TELAPSE       82.02 TCPU       78.31
 TTTTTTTTTTTTTTTTTTTTTTTTTTTTTT SHELLXN     TELAPSE       85.88 TCPU       82.14
 TTTTTTTTTTTTTTTTTTTTTTTTTTTTTT MONMO3      TELAPSE       85.89 TCPU       82.15
 NUMERICALLY INTEGRATED DENSITY    151.9999995772    151.9999995772
 TTTTTTTTTTTTTTTTTTTTTTTTTTTTTT NUMDFT      TELAPSE       86.15 TCPU       82.41
 CYC  16 ETOT(AU) -1.606515393447E+04 DETOT  5.46E-12 tst  2.77E-17 PX  4.17E-09
 TTTTTTTTTTTTTTTTTTTTTTTTTTTTTT DIIS        TELAPSE       86.17 TCPU       82.43
 DIIS TEST: 0.12918E-15 AT SCF   CYCLE  16 - DIIS ACTIVE - HISTORY:    16 CYCLES
 TTTTTTTTTTTTTTTTTTTTTTTTTTTTTT FDIK        TELAPSE       86.35 TCPU       82.61

    ALPHA      ELECTRONS
 INSULATING STATE
 TOP OF VALENCE BANDS -    BAND    152; K   16; EIG -1.6512654E-01 AU
 TOP OF VALENCE BANDS -    BAND    152; K    1; EIG -1.9924942E-01 AU
 BOTTOM OF VIRTUAL BANDS - BAND    153; K    2; EIG -8.5261436E-02 AU
 INDIRECT ENERGY BAND GAP:   2.1732 eV
 BOTTOM OF VIRTUAL BANDS - BAND    153; K    1; EIG -8.4624650E-02 AU

    BETA       ELECTRONS
 INSULATING STATE
 TOP OF VALENCE BANDS -    BAND    152; K   16; EIG -1.6512654E-01 AU
 TOP OF VALENCE BANDS -    BAND    152; K    1; EIG -1.9924942E-01 AU
 BOTTOM OF VIRTUAL BANDS - BAND    153; K    2; EIG -8.5261436E-02 AU
 INDIRECT ENERGY BAND GAP:   2.1732 eV
 BOTTOM OF VIRTUAL BANDS - BAND    153; K    1; EIG -8.4624650E-02 AU
 TTTTTTTTTTTTTTTTTTTTTTTTTTTTTT PDIG        TELAPSE       86.50 TCPU       82.76
 TTTTTTTTTTTTTTTTTTTTTTTTTTTTTT MOQGAD      TELAPSE       86.51 TCPU       82.76
 TTTTTTTTTTTTTTTTTTTTTTTTTTTTTT SHELLXN     TELAPSE       90.36 TCPU       86.59
 ::: PSEUDO TOTAL   ENERGY                        -1.5558661855762E+04
 ::: VIRIAL COEFFICIENT                            1.0154306012504E+00
 TTTTTTTTTTTTTTTTTTTTTTTTTTTTTT MONMO3      TELAPSE       90.36 TCPU       86.60
 NUMERICALLY INTEGRATED DENSITY    151.9999995772    151.9999995772
 EXCHANGE ENERGY: -0.492228110996E+03  CORRELATION ENERGY: -0.142639677120E+02
 TTTTTTTTTTTTTTTTTTTTTTTTTTTTTT NUMDFT      TELAPSE       90.63 TCPU       86.86
 CYC  17 ETOT(AU) -1.606515393447E+04 DETOT  3.64E-11 tst  5.58E-19 PX  4.17E-09

 == SCF ENDED - CONVERGENCE ON ENERGY      E(AU) -1.6065153934470E+04 CYCLES  17


 ENERGY EXPRESSION=HARTREE+FOCK EXCH*0.25000+(PBE        EXCH)*0.75000+PBE        CORR


 TOTAL ENERGY(DFT)(AU)( 17) -1.6065153934470E+04 DE 3.6E-11 tester 5.6E-19
 TTTTTTTTTTTTTTTTTTTTTTTTTTTTTT EDFT        TELAPSE       90.64 TCPU       86.86

 *******************************************************************************
 *                             FORCE CALCULATION                               *
 *******************************************************************************

 TTTTTTTTTTTTTTTTTTTTTTTTTTTTTT NUMDFG      TELAPSE       91.09 TCPU       87.31
 INFORMATION **** EXCPOG **** EXCH. BIPO BUFFER LENGTH (WORDS) =     5280408
 INFORMATION **** GENPOG **** BIPO BUFFER LENGTH (WORDS) =     1960000
 TTTTTTTTTTTTTTTTTTTTTTTTTTTTTT SHELXG      TELAPSE      116.77 TCPU      112.85

 CARTESIAN FORCES IN HARTREE/BOHR (ANALYTICAL)
   ATOM                     X                   Y                   Z
   1  27             7.307846999613E-03  7.307846999587E-03 -7.307846999580E-03
   2  27            -7.307846999563E-03 -7.307846999593E-03 -7.307846999597E-03
   3  27             7.307846999558E-03 -7.307846999607E-03  7.307846999593E-03
   4  27            -7.307846999575E-03  7.307846999583E-03  7.307846999584E-03
   5  33             4.712837981640E-04  4.712837982590E-04 -4.712837981955E-04
   6  33            -4.712837981498E-04 -4.712837982700E-04 -4.712837982395E-04
   7  33             4.712837982176E-04 -4.712837981783E-04  4.712837982015E-04
   8  33            -4.712837982232E-04  4.712837982096E-04  4.712837982374E-04
   9  16             1.342991881032E-03  1.342991881051E-03 -1.342991881074E-03
  10  16            -1.342991881038E-03 -1.342991881044E-03 -1.342991881040E-03
  11  16             1.342991881027E-03 -1.342991881076E-03  1.342991881080E-03
  12  16            -1.342991881065E-03  1.342991881072E-03  1.342991881041E-03

 RESULTANT FORCE    -3.515633964501E-15 -6.587829240456E-15  1.069500391027E-14

 ATOMIC PART

 SYMMETRY ALLOWED FORCES (ANALYTICAL) (DIRECTION, FORCE)

    1  2.5315125E-02    2  1.6325750E-03    3  4.6522603E-03

 CELL PART

 GRADIENT WITH RESPECT TO THE CELL PARAMETER IN HARTREE/BOHR
ORDER: -D/DA1X, -D/DA1Y, -D/DA1Z
       -D/DA2X, -D/DA2Y, -D/DA2Z
       -D/DA3X, -D/DA3Y, -D/DA3Z
 -0.443373386156E-02  0.373296422418E-14  0.120764654727E-13
  0.269675606786E-14 -0.443373386157E-02  0.885982279898E-14
  0.607108687033E-14  0.114020992059E-13 -0.443373386155E-02

STRESS TENSOR, IN HARTREE/BOHR^3:
ORDER: 11 12 13
       21 22 23
       31 32 33
  0.399324863752E-04 -0.242883714494E-16 -0.546793292746E-16
 -0.336209947813E-16  0.399324863753E-04 -0.102693166844E-15
 -0.108766856110E-15 -0.797961186337E-16  0.399324863752E-04

PRESSURE FROM THE STRESS TENSOR,
IN HARTREE/BOHR^3: -0.39932E-04
PRESSURE IN GIGAPASCAL: -0.1175E+01
CONVERSION FACTOR: 1 HARTREE/BOHR^3= 29421 GIGAPASCAL
WHEN USING VALUES FOR BOHR RADIUS AND HARTREE
FROM IUPAC WEBSITE, APRIL 2009
ENTHALPY: -1.6065200653225E+04

 SYMMETRY ALLOWED FORCES (ANALYTICAL) (DIRECTION, FORCE)

    1 -7.2604336E-03
 TTTTTTTTTTTTTTTTTTTTTTTTTTTTTT TOTGRA      TELAPSE      117.05 TCPU      113.13
 INFORMATION **** optc001 **** GEOMETRY OUTPUT FILE
 CLASSICAL MODEL (SCHLEGEL) USED AS INITIAL HESSIAN MATRIX
 REFERENCE GEOMETRY DEFINED

 MAX GRADIENT      0.025315  THRESHOLD              0.000045 CONVERGED NO
 RMS GRADIENT      0.013397  THRESHOLD              0.000030 CONVERGED NO

 GRADIENT NORM     0.026793  GRADIENT THRESHOLD     0.500000

 EIGENVALUES OF THE ESTIMATED HESSIAN
  0.1603      0.3217      0.4606      0.6084    

 INITIAL TRUST RADIUS    0.5000000000E+00

 PREDICTED ENERGY CHANGE    -0.836E-03

 INITIAL DISPLACEMENTS
  0.052377  0.005869  0.011826 -0.038742
 TTTTTTTTTTTTTTTTTTTTTTTTTTTTTT OPTI        TELAPSE      117.89 TCPU      113.96

 OPTOPTOPTOPTOPTOPTOPTOPTOPTOPTOPTOPTOPTOPTOPTOPTOPTOPTOPTOPTOPTOPTOPTOPTOPTOPT

 - INFORMATION ON SCF MOVED TO SCFOUT.LOG
 GEOMETRY OPTIMIZATION INFORMATION STORED IN OPTINFO.DAT

 OPTOPTOPTOPTOPTOPTOPTOPTOPTOPTOPTOPTOPTOPTOPTOPTOPTOPTOPTOPTOPTOPTOPTOPTOPTOPT
 *******************************************************************************
 COORDINATE AND CELL OPTIMIZATION - POINT    2
 *******************************************************************************
 LATTICE PARAMETERS (ANGSTROMS AND DEGREES) - BOHR = 0.5291772083 ANGSTROM
 PRIMITIVE CELL - CENTRING CODE 1/0 VOLUME=   172.326016 - DENSITY  6.392 g/cm^3
         A              B              C           ALPHA      BETA       GAMMA 
     5.56480925     5.56480925     5.56480925    90.000000  90.000000  90.000000
 *******************************************************************************
 ATOMS IN THE ASYMMETRIC UNIT    3 - ATOMS IN THE UNIT CELL:   12
     ATOM                 X/A                 Y/B                 Z/C    
 *******************************************************************************
      1 T  27 CO    4.914349270146E-01 -8.565072985413E-03 -4.914349270146E-01
      2 F  27 CO    8.565072985413E-03  8.565072985413E-03  8.565072985413E-03
      3 F  27 CO   -8.565072985413E-03 -4.914349270146E-01  4.914349270146E-01
      4 F  27 CO   -4.914349270146E-01  4.914349270146E-01 -8.565072985413E-03
      5 T  33 AS    1.201607937051E-01 -3.798392062949E-01 -1.201607937051E-01
      6 F  33 AS    3.798392062949E-01  3.798392062949E-01  3.798392062949E-01
      7 F  33 AS   -3.798392062949E-01 -1.201607937051E-01  1.201607937051E-01
      8 F  33 AS   -1.201607937051E-01  1.201607937051E-01 -3.798392062949E-01
      9 T  16 S    -1.166760031877E-01  3.833239968123E-01  1.166760031877E-01
     10 F  16 S    -3.833239968123E-01 -3.833239968123E-01 -3.833239968123E-01
     11 F  16 S     3.833239968123E-01  1.166760031877E-01 -1.166760031877E-01
     12 F  16 S     1.166760031877E-01 -1.166760031877E-01  3.833239968123E-01

 T = ATOM BELONGING TO THE ASYMMETRIC UNIT

 TOTAL ENERGY(DFT)(AU)( 18) -1.6065155251428E+04     DE (AU)   -1.317E-03

 UPDATED TRUST RADIUS     0.500E+00

 SYMMETRY ALLOWED FORCES  (COORDINATE, FORCE)

    1  1.5935434E-02    2  6.0956316E-04    3  5.9590602E-06    4 -8.2471864E-04

 GRADIENT NORM     0.015968  GRADIENT THRESHOLD     0.500000

 EIGENVALUES OF THE ESTIMATED HESSIAN
  0.1680      0.2058      0.3296      0.6077    

 PREDICTED ENERGY CHANGE    -0.642E-03

 MAX GRADIENT      0.015935  THRESHOLD              0.000045 CONVERGED NO
 RMS GRADIENT      0.007984  THRESHOLD              0.000030 CONVERGED NO
 MAX DISPLAC.      0.079598  THRESHOLD              0.000180 CONVERGED NO
 RMS DISPLAC.      0.040669  THRESHOLD              0.000120 CONVERGED NO
 TTTTTTTTTTTTTTTTTTTTTTTTTTTTTT OPTI        TELAPSE      231.22 TCPU      226.44
 *******************************************************************************
 COORDINATE AND CELL OPTIMIZATION - POINT    3
 *******************************************************************************
 LATTICE PARAMETERS (ANGSTROMS AND DEGREES) - BOHR = 0.5291772083 ANGSTROM
 PRIMITIVE CELL - CENTRING CODE 1/0 VOLUME=   171.988672 - DENSITY  6.404 g/cm^3
         A              B              C           ALPHA      BETA       GAMMA 
     5.56117568     5.56117568     5.56117568    90.000000  90.000000  90.000000
 *******************************************************************************
 ATOMS IN THE ASYMMETRIC UNIT    3 - ATOMS IN THE UNIT CELL:   12
     ATOM                 X/A                 Y/B                 Z/C    
 *******************************************************************************
      1 T  27 CO    4.936155932436E-01 -6.384406756384E-03 -4.936155932436E-01
      2 F  27 CO    6.384406756384E-03  6.384406756384E-03  6.384406756384E-03
      3 F  27 CO   -6.384406756384E-03 -4.936155932436E-01  4.936155932436E-01
      4 F  27 CO   -4.936155932436E-01  4.936155932436E-01 -6.384406756384E-03
      5 T  33 AS    1.203854984888E-01 -3.796145015112E-01 -1.203854984888E-01
      6 F  33 AS    3.796145015112E-01  3.796145015112E-01  3.796145015112E-01
      7 F  33 AS   -3.796145015112E-01 -1.203854984888E-01  1.203854984888E-01
      8 F  33 AS   -1.203854984888E-01  1.203854984888E-01 -3.796145015112E-01
      9 T  16 S    -1.164747157433E-01  3.835252842567E-01  1.164747157433E-01
     10 F  16 S    -3.835252842567E-01 -3.835252842567E-01 -3.835252842567E-01
     11 F  16 S     3.835252842567E-01  1.164747157433E-01 -1.164747157433E-01
     12 F  16 S     1.164747157433E-01 -1.164747157433E-01  3.835252842567E-01

 T = ATOM BELONGING TO THE ASYMMETRIC UNIT

 TOTAL ENERGY(DFT)(AU)( 18) -1.6065156055990E+04     DE (AU)   -8.046E-04

 UPDATED TRUST RADIUS     0.500E+00

 SYMMETRY ALLOWED FORCES  (COORDINATE, FORCE)

    1  2.3064111E-03    2 -2.6223946E-03    3 -4.0468688E-03    4  2.1203771E-03

 GRADIENT NORM     0.005751  GRADIENT THRESHOLD     0.500000

 EIGENVALUES OF THE ESTIMATED HESSIAN
  0.1708      0.1830      0.3295      0.6170    

 PREDICTED ENERGY CHANGE    -0.416E-04

 MAX GRADIENT      0.004047  THRESHOLD              0.000045 CONVERGED NO
 RMS GRADIENT      0.002875  THRESHOLD              0.000030 CONVERGED NO
 MAX DISPLAC.      0.012524  THRESHOLD              0.000180 CONVERGED NO
 RMS DISPLAC.      0.008732  THRESHOLD              0.000120 CONVERGED NO
 TTTTTTTTTTTTTTTTTTTTTTTTTTTTTT OPTI        TELAPSE      344.44 TCPU      338.77
 *******************************************************************************
 COORDINATE AND CELL OPTIMIZATION - POINT    4
 *******************************************************************************
 LATTICE PARAMETERS (ANGSTROMS AND DEGREES) - BOHR = 0.5291772083 ANGSTROM
 PRIMITIVE CELL - CENTRING CODE 1/0 VOLUME=   172.258054 - DENSITY  6.394 g/cm^3
         A              B              C           ALPHA      BETA       GAMMA 
     5.56407760     5.56407760     5.56407760    90.000000  90.000000  90.000000
 *******************************************************************************
 ATOMS IN THE ASYMMETRIC UNIT    3 - ATOMS IN THE UNIT CELL:   12
     ATOM                 X/A                 Y/B                 Z/C    
 *******************************************************************************
      1 T  27 CO    4.939586906780E-01 -6.041309322014E-03 -4.939586906780E-01
      2 F  27 CO    6.041309322014E-03  6.041309322014E-03  6.041309322014E-03
      3 F  27 CO   -6.041309322014E-03 -4.939586906780E-01  4.939586906780E-01
      4 F  27 CO   -4.939586906780E-01  4.939586906780E-01 -6.041309322014E-03
      5 T  33 AS    1.202725600188E-01 -3.797274399812E-01 -1.202725600188E-01
      6 F  33 AS    3.797274399812E-01  3.797274399812E-01  3.797274399812E-01
      7 F  33 AS   -3.797274399812E-01 -1.202725600188E-01  1.202725600188E-01
      8 F  33 AS   -1.202725600188E-01  1.202725600188E-01 -3.797274399812E-01
      9 T  16 S    -1.166239608897E-01  3.833760391103E-01  1.166239608897E-01
     10 F  16 S    -3.833760391103E-01 -3.833760391103E-01 -3.833760391103E-01
     11 F  16 S     3.833760391103E-01  1.166239608897E-01 -1.166239608897E-01
     12 F  16 S     1.166239608897E-01 -1.166239608897E-01  3.833760391103E-01

 T = ATOM BELONGING TO THE ASYMMETRIC UNIT

 TOTAL ENERGY(DFT)(AU)( 14) -1.6065156149349E+04     DE (AU)   -9.336E-05

 UPDATED TRUST RADIUS     0.500E+00

 SYMMETRY ALLOWED FORCES  (COORDINATE, FORCE)

    1  7.6979345E-04    2 -2.9954116E-03    3 -3.5778463E-03    4  7.1108684E-04

 GRADIENT NORM     0.004782  GRADIENT THRESHOLD     0.500000

 EIGENVALUES OF THE ESTIMATED HESSIAN
  0.1040      0.1823      0.3251      0.4276    

 PREDICTED ENERGY CHANGE    -0.649E-04

 MAX GRADIENT      0.003578  THRESHOLD              0.000045 CONVERGED NO
 RMS GRADIENT      0.002391  THRESHOLD              0.000030 CONVERGED NO
 MAX DISPLAC.      0.017632  THRESHOLD              0.000180 CONVERGED NO
 RMS DISPLAC.      0.016022  THRESHOLD              0.000120 CONVERGED NO
 TTTTTTTTTTTTTTTTTTTTTTTTTTTTTT OPTI        TELAPSE      439.67 TCPU      433.22
 *******************************************************************************
 COORDINATE AND CELL OPTIMIZATION - POINT    5
 *******************************************************************************
 LATTICE PARAMETERS (ANGSTROMS AND DEGREES) - BOHR = 0.5291772083 ANGSTROM
 PRIMITIVE CELL - CENTRING CODE 1/0 VOLUME=   172.631247 - DENSITY  6.380 g/cm^3
         A              B              C           ALPHA      BETA       GAMMA 
     5.56809285     5.56809285     5.56809285    90.000000  90.000000  90.000000
 *******************************************************************************
 ATOMS IN THE ASYMMETRIC UNIT    3 - ATOMS IN THE UNIT CELL:   12
     ATOM                 X/A                 Y/B                 Z/C    
 *******************************************************************************
      1 T  27 CO    4.944417308816E-01 -5.558269118393E-03 -4.944417308816E-01
      2 F  27 CO    5.558269118393E-03  5.558269118393E-03  5.558269118393E-03
      3 F  27 CO   -5.558269118393E-03 -4.944417308816E-01  4.944417308816E-01
      4 F  27 CO   -4.944417308816E-01  4.944417308816E-01 -5.558269118393E-03
      5 T  33 AS    1.198421490070E-01 -3.801578509930E-01 -1.198421490070E-01
      6 F  33 AS    3.801578509930E-01  3.801578509930E-01  3.801578509930E-01
      7 F  33 AS   -3.801578509930E-01 -1.198421490070E-01  1.198421490070E-01
      8 F  33 AS   -1.198421490070E-01  1.198421490070E-01 -3.801578509930E-01
      9 T  16 S    -1.170782701357E-01  3.829217298643E-01  1.170782701357E-01
     10 F  16 S    -3.829217298643E-01 -3.829217298643E-01 -3.829217298643E-01
     11 F  16 S     3.829217298643E-01  1.170782701357E-01 -1.170782701357E-01
     12 F  16 S     1.170782701357E-01 -1.170782701357E-01  3.829217298643E-01

 T = ATOM BELONGING TO THE ASYMMETRIC UNIT

 TOTAL ENERGY(DFT)(AU)( 15) -1.6065156277799E+04     DE (AU)   -1.285E-04

 UPDATED TRUST RADIUS     0.500E+00

 SYMMETRY ALLOWED FORCES  (COORDINATE, FORCE)

    1 -7.1237162E-04    2 -2.5899249E-03    3 -2.0921721E-03    4 -1.2773650E-03

 GRADIENT NORM     0.003636  GRADIENT THRESHOLD     0.500000

 EIGENVALUES OF THE ESTIMATED HESSIAN
  0.7681E-01  0.1863      0.3028      0.3974    

 PREDICTED ENERGY CHANGE    -0.331E-04

 MAX GRADIENT      0.002590  THRESHOLD              0.000045 CONVERGED NO
 RMS GRADIENT      0.001818  THRESHOLD              0.000030 CONVERGED NO
 MAX DISPLAC.      0.016138  THRESHOLD              0.000180 CONVERGED NO
 RMS DISPLAC.      0.011969  THRESHOLD              0.000120 CONVERGED NO
 TTTTTTTTTTTTTTTTTTTTTTTTTTTTTT OPTI        TELAPSE      540.13 TCPU      532.93
 *******************************************************************************
 COORDINATE AND CELL OPTIMIZATION - POINT    6
 *******************************************************************************
 LATTICE PARAMETERS (ANGSTROMS AND DEGREES) - BOHR = 0.5291772083 ANGSTROM
 PRIMITIVE CELL - CENTRING CODE 1/0 VOLUME=   172.672108 - DENSITY  6.379 g/cm^3
         A              B              C           ALPHA      BETA       GAMMA 
     5.56853213     5.56853213     5.56853213    90.000000  90.000000  90.000000
 *******************************************************************************
 ATOMS IN THE ASYMMETRIC UNIT    3 - ATOMS IN THE UNIT CELL:   12
     ATOM                 X/A                 Y/B                 Z/C    
 *******************************************************************************
      1 T  27 CO    4.946719689331E-01 -5.328031066901E-03 -4.946719689331E-01
      2 F  27 CO    5.328031066901E-03  5.328031066901E-03  5.328031066901E-03
      3 F  27 CO   -5.328031066900E-03 -4.946719689331E-01  4.946719689331E-01
      4 F  27 CO   -4.946719689331E-01  4.946719689331E-01 -5.328031066901E-03
      5 T  33 AS    1.194000271228E-01 -3.805999728772E-01 -1.194000271228E-01
      6 F  33 AS    3.805999728772E-01  3.805999728772E-01  3.805999728772E-01
      7 F  33 AS   -3.805999728772E-01 -1.194000271228E-01  1.194000271228E-01
      8 F  33 AS   -1.194000271228E-01  1.194000271228E-01 -3.805999728772E-01
      9 T  16 S    -1.175024110807E-01  3.824975889193E-01  1.175024110807E-01
     10 F  16 S    -3.824975889193E-01 -3.824975889193E-01 -3.824975889193E-01
     11 F  16 S     3.824975889193E-01  1.175024110807E-01 -1.175024110807E-01
     12 F  16 S     1.175024110807E-01 -1.175024110807E-01  3.824975889193E-01

 T = ATOM BELONGING TO THE ASYMMETRIC UNIT

 TOTAL ENERGY(DFT)(AU)( 15) -1.6065156342539E+04     DE (AU)   -6.474E-05

 UPDATED TRUST RADIUS     0.500E+00

 SYMMETRY ALLOWED FORCES  (COORDINATE, FORCE)

    1 -9.2130410E-04    2 -1.4751952E-03    3 -8.4064506E-04    4 -1.4981771E-03

 GRADIENT NORM     0.002445  GRADIENT THRESHOLD     0.500000

 EIGENVALUES OF THE ESTIMATED HESSIAN
  0.6672E-01  0.1887      0.2345      0.3474    

 PREDICTED ENERGY CHANGE    -0.177E-04

 MAX GRADIENT      0.001498  THRESHOLD              0.000045 CONVERGED NO
 RMS GRADIENT      0.001222  THRESHOLD              0.000030 CONVERGED NO
 MAX DISPLAC.      0.012349  THRESHOLD              0.000180 CONVERGED NO
 RMS DISPLAC.      0.008916  THRESHOLD              0.000120 CONVERGED NO
 TTTTTTTTTTTTTTTTTTTTTTTTTTTTTT OPTI        TELAPSE      640.02 TCPU      632.04
 *******************************************************************************
 COORDINATE AND CELL OPTIMIZATION - POINT    7
 *******************************************************************************
 LATTICE PARAMETERS (ANGSTROMS AND DEGREES) - BOHR = 0.5291772083 ANGSTROM
 PRIMITIVE CELL - CENTRING CODE 1/0 VOLUME=   172.509090 - DENSITY  6.385 g/cm^3
         A              B              C           ALPHA      BETA       GAMMA 
     5.56677919     5.56677919     5.56677919    90.000000  90.000000  90.000000
 *******************************************************************************
 ATOMS IN THE ASYMMETRIC UNIT    3 - ATOMS IN THE UNIT CELL:   12
     ATOM                 X/A                 Y/B                 Z/C    
 *******************************************************************************
      1 T  27 CO    4.947108889442E-01 -5.289111055841E-03 -4.947108889442E-01
      2 F  27 CO    5.289111055840E-03  5.289111055841E-03  5.289111055841E-03
      3 F  27 CO   -5.289111055840E-03 -4.947108889442E-01  4.947108889442E-01
      4 F  27 CO   -4.947108889442E-01  4.947108889442E-01 -5.289111055841E-03
      5 T  33 AS    1.190617173648E-01 -3.809382826352E-01 -1.190617173648E-01
      6 F  33 AS    3.809382826352E-01  3.809382826352E-01  3.809382826352E-01
      7 F  33 AS   -3.809382826352E-01 -1.190617173648E-01  1.190617173648E-01
      8 F  33 AS   -1.190617173648E-01  1.190617173648E-01 -3.809382826352E-01
      9 T  16 S    -1.178105516894E-01  3.821894483106E-01  1.178105516894E-01
     10 F  16 S    -3.821894483106E-01 -3.821894483106E-01 -3.821894483106E-01
     11 F  16 S     3.821894483106E-01  1.178105516894E-01 -1.178105516894E-01
     12 F  16 S     1.178105516894E-01 -1.178105516894E-01  3.821894483106E-01

 T = ATOM BELONGING TO THE ASYMMETRIC UNIT

 TOTAL ENERGY(DFT)(AU)( 17) -1.6065156364718E+04     DE (AU)   -2.218E-05

 UPDATED TRUST RADIUS     0.500E+00

 SYMMETRY ALLOWED FORCES  (COORDINATE, FORCE)

    1 -4.0976656E-04    2 -2.5967173E-04    3 -8.4741604E-06    4 -6.3949405E-04

 GRADIENT NORM     0.000803  GRADIENT THRESHOLD     0.500000

 EIGENVALUES OF THE ESTIMATED HESSIAN
  0.7347E-01  0.1671      0.2027      0.3353    

 PREDICTED ENERGY CHANGE    -0.177E-05

 MAX GRADIENT      0.000639  THRESHOLD              0.000045 CONVERGED NO
 RMS GRADIENT      0.000401  THRESHOLD              0.000030 CONVERGED NO
 MAX DISPLAC.      0.003761  THRESHOLD              0.000180 CONVERGED NO
 RMS DISPLAC.      0.002271  THRESHOLD              0.000120 CONVERGED NO
 TTTTTTTTTTTTTTTTTTTTTTTTTTTTTT OPTI        TELAPSE      750.28 TCPU      741.47
 *******************************************************************************
 COORDINATE AND CELL OPTIMIZATION - POINT    8
 *******************************************************************************
 LATTICE PARAMETERS (ANGSTROMS AND DEGREES) - BOHR = 0.5291772083 ANGSTROM
 PRIMITIVE CELL - CENTRING CODE 1/0 VOLUME=   172.408271 - DENSITY  6.389 g/cm^3
         A              B              C           ALPHA      BETA       GAMMA 
     5.56569452     5.56569452     5.56569452    90.000000  90.000000  90.000000
 *******************************************************************************
 ATOMS IN THE ASYMMETRIC UNIT    3 - ATOMS IN THE UNIT CELL:   12
     ATOM                 X/A                 Y/B                 Z/C    
 *******************************************************************************
      1 T  27 CO    4.946569089648E-01 -5.343091035157E-03 -4.946569089648E-01
[...]
   19-  21      298.8316 (F  )    0.00    9.84    9.83    0.00    9.84    0.00
   22-  24      313.3037 (F  )    0.00    6.01    6.01    0.00    6.01    0.00
   25-  27      366.9124 (F  )    0.00    7.73    7.73    0.00    7.73    0.00
   28-  29      368.9873 (E  )  268.52    0.00    0.00  268.52    0.00  268.52
   30-  32      397.8306 (F  )    0.00    0.01    0.01    0.00    0.01    0.00
   33-  33      402.7163 (A  )  912.61    0.00    0.00  912.61    0.00  912.61
   34-  36      428.5478 (F  )    0.00  310.88  310.88    0.00  310.88    0.00

 <RAMAN><RAMAN><RAMAN><RAMAN><RAMAN><RAMAN><RAMAN><RAMAN><RAMAN><RAMAN><RAMAN>
 <RAMAN><RAMAN><RAMAN><RAMAN><RAMAN><RAMAN><RAMAN><RAMAN><RAMAN><RAMAN><RAMAN>


 NORMAL MODES NORMALIZED TO CLASSICAL AMPLITUDES (IN BOHR)

 FREQ(CM**-1)      0.00      0.00      0.00    169.54    169.54    169.54

 AT.   1 CO X    -0.0000    0.0388   -0.0000   -0.0011   -0.0033   -0.0297
            Y     0.0000    0.0000    0.0388    0.0297    0.0011   -0.0033
            Z     0.0388    0.0000   -0.0000   -0.0033    0.0297   -0.0011
 AT.   2 CO X     0.0000    0.0388   -0.0000    0.0011   -0.0033   -0.0297
            Y    -0.0000    0.0000    0.0388   -0.0297    0.0011   -0.0033
            Z     0.0388   -0.0000    0.0000   -0.0033   -0.0297    0.0011
 AT.   3 CO X     0.0000    0.0388    0.0000    0.0011   -0.0033    0.0297
            Y     0.0000   -0.0000    0.0388    0.0297   -0.0011   -0.0033
            Z     0.0388   -0.0000   -0.0000   -0.0033   -0.0297   -0.0011
 AT.   4 CO X    -0.0000    0.0388    0.0000   -0.0011   -0.0033    0.0297
            Y    -0.0000   -0.0000    0.0388   -0.0297   -0.0011   -0.0033
            Z     0.0388    0.0000    0.0000   -0.0033    0.0297    0.0011
 AT.   5 AS X    -0.0000    0.0388    0.0000   -0.0009    0.0019    0.0366
            Y    -0.0000    0.0000    0.0388   -0.0366    0.0009    0.0019
            Z     0.0388   -0.0000   -0.0000    0.0019   -0.0366   -0.0009
 AT.   6 AS X     0.0000    0.0388    0.0000    0.0009    0.0019    0.0366
            Y     0.0000    0.0000    0.0388    0.0366    0.0009    0.0019
            Z     0.0388    0.0000    0.0000    0.0019    0.0366    0.0009
 AT.   7 AS X     0.0000    0.0388   -0.0000    0.0009    0.0019   -0.0366
            Y    -0.0000   -0.0000    0.0388   -0.0366   -0.0009    0.0019
            Z     0.0388    0.0000   -0.0000    0.0019    0.0366   -0.0009
 AT.   8 AS X    -0.0000    0.0388   -0.0000   -0.0009    0.0019   -0.0366
            Y     0.0000   -0.0000    0.0388    0.0366   -0.0009    0.0019
            Z     0.0388   -0.0000    0.0000    0.0019   -0.0366    0.0009
 AT.   9 S  X    -0.0000    0.0388    0.0000   -0.0020    0.0015    0.0275
            Y    -0.0000    0.0000    0.0388   -0.0275    0.0020    0.0015
            Z     0.0388   -0.0000   -0.0000    0.0015   -0.0275   -0.0020
 AT.  10 S  X     0.0000    0.0388    0.0000    0.0020    0.0015    0.0275
            Y     0.0000    0.0000    0.0388    0.0275    0.0020    0.0015
            Z     0.0388    0.0000    0.0000    0.0015    0.0275    0.0020
 AT.  11 S  X     0.0000    0.0388   -0.0000    0.0020    0.0015   -0.0275
            Y    -0.0000   -0.0000    0.0388   -0.0275   -0.0020    0.0015
            Z     0.0388    0.0000   -0.0000    0.0015    0.0275   -0.0020
 AT.  12 S  X    -0.0000    0.0388   -0.0000   -0.0020    0.0015   -0.0275
            Y     0.0000   -0.0000    0.0388    0.0275   -0.0020    0.0015
            Z     0.0388   -0.0000    0.0000    0.0015   -0.0275    0.0020

 FREQ(CM**-1)    173.98    185.40    185.40    237.21    237.21    237.21

 AT.   1 CO X    -0.0144   -0.0227   -0.0082   -0.0038   -0.0049    0.0083
            Y    -0.0144    0.0185   -0.0155   -0.0083    0.0038   -0.0049
            Z     0.0144   -0.0042   -0.0237   -0.0049   -0.0083   -0.0038
 AT.   2 CO X     0.0144    0.0227    0.0082    0.0038   -0.0049    0.0083
            Y     0.0144   -0.0185    0.0155    0.0083    0.0038   -0.0049
            Z     0.0144   -0.0042   -0.0237   -0.0049    0.0083    0.0038
 AT.   3 CO X    -0.0144   -0.0227   -0.0082    0.0038   -0.0049   -0.0083
            Y     0.0144   -0.0185    0.0155   -0.0083   -0.0038   -0.0049
            Z    -0.0144    0.0042    0.0237   -0.0049    0.0083   -0.0038
 AT.   4 CO X     0.0144    0.0227    0.0082   -0.0038   -0.0049   -0.0083
            Y    -0.0144    0.0185   -0.0155    0.0083   -0.0038   -0.0049
            Z    -0.0144    0.0042    0.0237   -0.0049   -0.0083    0.0038
 AT.   5 AS X     0.0224    0.0234    0.0184   -0.0393    0.0017    0.0015
            Y     0.0224   -0.0277    0.0111   -0.0015    0.0393    0.0017
            Z    -0.0224   -0.0043    0.0295    0.0017   -0.0015   -0.0393
 AT.   6 AS X    -0.0224   -0.0234   -0.0184    0.0393    0.0017    0.0015
            Y    -0.0224    0.0277   -0.0111    0.0015    0.0393    0.0017
            Z    -0.0224   -0.0043    0.0295    0.0017    0.0015    0.0393
 AT.   7 AS X     0.0224    0.0234    0.0184    0.0393    0.0017   -0.0015
            Y    -0.0224    0.0277   -0.0111   -0.0015   -0.0393    0.0017
            Z     0.0224    0.0043   -0.0295    0.0017    0.0015   -0.0393
 AT.   8 AS X    -0.0224   -0.0234   -0.0184   -0.0393    0.0017   -0.0015
            Y     0.0224   -0.0277    0.0111    0.0015   -0.0393    0.0017
            Z     0.0224    0.0043   -0.0295    0.0017   -0.0015    0.0393
 AT.   9 S  X     0.0158    0.0143    0.0049   -0.0083    0.0051    0.0062
            Y     0.0158   -0.0114    0.0099   -0.0062    0.0083    0.0051
            Z    -0.0158    0.0029    0.0149    0.0051   -0.0062   -0.0083
 AT.  10 S  X    -0.0158   -0.0143   -0.0049    0.0083    0.0051    0.0062
            Y    -0.0158    0.0114   -0.0099    0.0062    0.0083    0.0051
            Z    -0.0158    0.0029    0.0149    0.0051    0.0062    0.0083
 AT.  11 S  X     0.0158    0.0143    0.0049    0.0083    0.0051   -0.0062
            Y    -0.0158    0.0114   -0.0099   -0.0062   -0.0083    0.0051
            Z     0.0158   -0.0029   -0.0149    0.0051    0.0062   -0.0083
 AT.  12 S  X    -0.0158   -0.0143   -0.0049   -0.0083    0.0051   -0.0062
            Y     0.0158   -0.0114    0.0099    0.0062   -0.0083    0.0051
            Z     0.0158   -0.0029   -0.0149    0.0051   -0.0062    0.0083

 FREQ(CM**-1)    285.28    286.52    286.52    286.52    293.78    293.78

 AT.   1 CO X     0.0213   -0.0391    0.0023   -0.0110   -0.0163   -0.0094
            Y     0.0213    0.0110    0.0391    0.0023    0.0163   -0.0094
            Z    -0.0213    0.0023    0.0110   -0.0391   -0.0000   -0.0188
 AT.   2 CO X    -0.0213    0.0391    0.0023   -0.0110    0.0163    0.0094
            Y    -0.0213   -0.0110    0.0391    0.0023   -0.0163    0.0094
            Z    -0.0213    0.0023   -0.0110    0.0391   -0.0000   -0.0188
 AT.   3 CO X     0.0213    0.0391    0.0023    0.0110   -0.0163   -0.0094
            Y    -0.0213    0.0110   -0.0391    0.0023   -0.0163    0.0094
            Z     0.0213    0.0023   -0.0110   -0.0391    0.0000    0.0188
 AT.   4 CO X    -0.0213   -0.0391    0.0023    0.0110    0.0163    0.0094
            Y     0.0213   -0.0110   -0.0391    0.0023    0.0163   -0.0094
            Z     0.0213    0.0023    0.0110    0.0391    0.0000    0.0188
 AT.   5 AS X     0.0106   -0.0001   -0.0010   -0.0081   -0.0112   -0.0139
            Y     0.0106    0.0081    0.0001   -0.0010    0.0176   -0.0027
            Z    -0.0106   -0.0010    0.0081   -0.0001    0.0064   -0.0166
 AT.   6 AS X    -0.0106    0.0001   -0.0010   -0.0081    0.0112    0.0139
            Y    -0.0106   -0.0081    0.0001   -0.0010   -0.0176    0.0027
            Z    -0.0106   -0.0010   -0.0081    0.0001    0.0064   -0.0166
 AT.   7 AS X     0.0106    0.0001   -0.0010    0.0081   -0.0112   -0.0139
            Y    -0.0106    0.0081   -0.0001   -0.0010   -0.0176    0.0027
            Z     0.0106   -0.0010   -0.0081   -0.0001   -0.0064    0.0166
 AT.   8 AS X    -0.0106   -0.0001   -0.0010    0.0081    0.0112    0.0139
            Y     0.0106   -0.0081   -0.0001   -0.0010    0.0176   -0.0027
            Z     0.0106   -0.0010    0.0081    0.0001   -0.0064    0.0166
 AT.   9 S  X     0.0004    0.0079   -0.0018    0.0019    0.0214    0.0167
            Y     0.0004   -0.0019   -0.0079   -0.0018   -0.0252    0.0102
            Z    -0.0004   -0.0018   -0.0019    0.0079   -0.0038    0.0269
 AT.  10 S  X    -0.0004   -0.0079   -0.0018    0.0019   -0.0214   -0.0167
            Y    -0.0004    0.0019   -0.0079   -0.0018    0.0252   -0.0102
            Z    -0.0004   -0.0018    0.0019   -0.0079   -0.0038    0.0269
 AT.  11 S  X     0.0004   -0.0079   -0.0018   -0.0019    0.0214    0.0167
            Y    -0.0004   -0.0019    0.0079   -0.0018    0.0252   -0.0102
            Z     0.0004   -0.0018    0.0019    0.0079    0.0038   -0.0269
 AT.  12 S  X    -0.0004    0.0079   -0.0018   -0.0019   -0.0214   -0.0167
            Y     0.0004    0.0019    0.0079   -0.0018   -0.0252    0.0102
            Z     0.0004   -0.0018   -0.0019   -0.0079    0.0038   -0.0269

 FREQ(CM**-1)    298.83    298.83    298.83    313.30    313.30    313.30

 AT.   1 CO X    -0.0009    0.0159    0.0024   -0.0146   -0.0070    0.0249
            Y    -0.0024    0.0009    0.0159   -0.0249    0.0146   -0.0070
            Z     0.0159   -0.0024   -0.0009   -0.0070   -0.0249   -0.0146
 AT.   2 CO X     0.0009    0.0159    0.0024    0.0146   -0.0070    0.0249
            Y     0.0024    0.0009    0.0159    0.0249    0.0146   -0.0070
            Z     0.0159    0.0024    0.0009   -0.0070    0.0249    0.0146
 AT.   3 CO X     0.0009    0.0159   -0.0024    0.0146   -0.0070   -0.0249
            Y    -0.0024   -0.0009    0.0159   -0.0249   -0.0146   -0.0070
            Z     0.0159    0.0024   -0.0009   -0.0070    0.0249   -0.0146
 AT.   4 CO X    -0.0009    0.0159   -0.0024   -0.0146   -0.0070   -0.0249
            Y     0.0024   -0.0009    0.0159    0.0249   -0.0146   -0.0070
            Z     0.0159   -0.0024    0.0009   -0.0070   -0.0249    0.0146
 AT.   5 AS X    -0.0023   -0.0243    0.0084    0.0078    0.0047    0.0181
            Y    -0.0084    0.0023   -0.0243   -0.0181   -0.0078    0.0047
            Z    -0.0243   -0.0084   -0.0023    0.0047   -0.0181    0.0078
 AT.   6 AS X     0.0023   -0.0243    0.0084   -0.0078    0.0047    0.0181
            Y     0.0084    0.0023   -0.0243    0.0181   -0.0078    0.0047
            Z    -0.0243    0.0084    0.0023    0.0047    0.0181   -0.0078
 AT.   7 AS X     0.0023   -0.0243   -0.0084   -0.0078    0.0047   -0.0181
            Y    -0.0084   -0.0023   -0.0243   -0.0181    0.0078    0.0047
            Z    -0.0243    0.0084   -0.0023    0.0047    0.0181    0.0078
 AT.   8 AS X    -0.0023   -0.0243   -0.0084    0.0078    0.0047   -0.0181
            Y     0.0084   -0.0023   -0.0243    0.0181    0.0078    0.0047
            Z    -0.0243   -0.0084    0.0023    0.0047   -0.0181   -0.0078
 AT.   9 S  X     0.0115    0.0276   -0.0149   -0.0171    0.0020   -0.0111
            Y     0.0149   -0.0115    0.0276    0.0111    0.0171    0.0020
            Z     0.0276    0.0149    0.0115    0.0020    0.0111   -0.0171
 AT.  10 S  X    -0.0115    0.0276   -0.0149    0.0171    0.0020   -0.0111
            Y    -0.0149   -0.0115    0.0276   -0.0111    0.0171    0.0020
            Z     0.0276   -0.0149   -0.0115    0.0020   -0.0111    0.0171
 AT.  11 S  X    -0.0115    0.0276    0.0149    0.0171    0.0020    0.0111
            Y     0.0149    0.0115    0.0276    0.0111   -0.0171    0.0020
            Z     0.0276   -0.0149    0.0115    0.0020   -0.0111   -0.0171
 AT.  12 S  X     0.0115    0.0276    0.0149   -0.0171    0.0020    0.0111
            Y    -0.0149    0.0115    0.0276   -0.0111   -0.0171    0.0020
            Z     0.0276    0.0149   -0.0115    0.0020    0.0111    0.0171

 FREQ(CM**-1)    366.91    366.91    366.91    368.99    368.99    397.83

 AT.   1 CO X     0.0034    0.0004   -0.0152    0.0174   -0.0066    0.0013
            Y    -0.0004    0.0152    0.0034   -0.0030    0.0184    0.0084
            Z     0.0152    0.0034    0.0004    0.0145    0.0118   -0.0212
 AT.   2 CO X     0.0034   -0.0004   -0.0152   -0.0174    0.0066   -0.0013
            Y    -0.0004   -0.0152    0.0034    0.0030   -0.0184   -0.0084
            Z    -0.0152    0.0034   -0.0004    0.0145    0.0118   -0.0212
 AT.   3 CO X     0.0034   -0.0004    0.0152    0.0174   -0.0066   -0.0013
            Y     0.0004    0.0152    0.0034    0.0030   -0.0184    0.0084
            Z    -0.0152    0.0034    0.0004   -0.0145   -0.0118   -0.0212
 AT.   4 CO X     0.0034    0.0004    0.0152   -0.0174    0.0066    0.0013
            Y     0.0004   -0.0152    0.0034   -0.0030    0.0184   -0.0084
            Z     0.0152    0.0034   -0.0004   -0.0145   -0.0118   -0.0212
 AT.   5 AS X    -0.0026   -0.0011   -0.0030    0.0050   -0.0010   -0.0010
            Y     0.0011    0.0030   -0.0026   -0.0017    0.0048   -0.0006
            Z     0.0030   -0.0026   -0.0011    0.0033    0.0039    0.0081
 AT.   6 AS X    -0.0026    0.0011   -0.0030   -0.0050    0.0010    0.0010
            Y     0.0011   -0.0030   -0.0026    0.0017   -0.0048    0.0006
            Z    -0.0030   -0.0026    0.0011    0.0033    0.0039    0.0081
 AT.   7 AS X    -0.0026    0.0011    0.0030    0.0050   -0.0010    0.0010
            Y    -0.0011    0.0030   -0.0026    0.0017   -0.0048   -0.0006
            Z    -0.0030   -0.0026   -0.0011   -0.0033   -0.0039    0.0081
 AT.   8 AS X    -0.0026   -0.0011    0.0030   -0.0050    0.0010   -0.0010
            Y    -0.0011   -0.0030   -0.0026   -0.0017    0.0048    0.0006
            Z     0.0030   -0.0026    0.0011   -0.0033   -0.0039    0.0081
 AT.   9 S  X    -0.0003   -0.0395   -0.0227    0.0304   -0.0085    0.0153
            Y     0.0395    0.0227   -0.0003   -0.0079    0.0306    0.0245
            Z     0.0227   -0.0003   -0.0395    0.0226    0.0221    0.0202
 AT.  10 S  X    -0.0003    0.0395   -0.0227   -0.0304    0.0085   -0.0153
            Y     0.0395   -0.0227   -0.0003    0.0079   -0.0306   -0.0245
            Z    -0.0227   -0.0003    0.0395    0.0226    0.0221    0.0202
 AT.  11 S  X    -0.0003    0.0395    0.0227    0.0304   -0.0085   -0.0153
            Y    -0.0395    0.0227   -0.0003    0.0079   -0.0306    0.0245
            Z    -0.0227   -0.0003   -0.0395   -0.0226   -0.0221    0.0202
 AT.  12 S  X    -0.0003   -0.0395    0.0227   -0.0304    0.0085    0.0153
            Y    -0.0395   -0.0227   -0.0003   -0.0079    0.0306   -0.0245
            Z     0.0227   -0.0003    0.0395   -0.0226   -0.0221    0.0202

 FREQ(CM**-1)    397.83    397.83    402.72    428.55    428.55    428.55

 AT.   1 CO X    -0.0212   -0.0084    0.0036    0.0104    0.0006   -0.0019
            Y    -0.0013   -0.0212    0.0036   -0.0006    0.0019    0.0104
            Z     0.0084    0.0013   -0.0036    0.0019    0.0104    0.0006
 AT.   2 CO X    -0.0212   -0.0084   -0.0036    0.0104   -0.0006   -0.0019
            Y    -0.0013   -0.0212   -0.0036   -0.0006   -0.0019    0.0104
            Z    -0.0084   -0.0013   -0.0036   -0.0019    0.0104   -0.0006
 AT.   3 CO X    -0.0212    0.0084    0.0036    0.0104   -0.0006    0.0019
            Y     0.0013   -0.0212   -0.0036    0.0006    0.0019    0.0104
            Z    -0.0084    0.0013    0.0036   -0.0019    0.0104    0.0006
 AT.   4 CO X    -0.0212    0.0084   -0.0036    0.0104    0.0006    0.0019
            Y     0.0013   -0.0212    0.0036    0.0006   -0.0019    0.0104
            Z     0.0084   -0.0013    0.0036    0.0019    0.0104   -0.0006
 AT.   5 AS X     0.0081    0.0006   -0.0060    0.0042   -0.0056    0.0082
            Y     0.0010    0.0081   -0.0060    0.0056   -0.0082    0.0042
            Z    -0.0006   -0.0010    0.0060   -0.0082    0.0042   -0.0056
 AT.   6 AS X     0.0081    0.0006    0.0060    0.0042    0.0056    0.0082
            Y     0.0010    0.0081    0.0060    0.0056    0.0082    0.0042
            Z     0.0006    0.0010    0.0060    0.0082    0.0042    0.0056
 AT.   7 AS X     0.0081   -0.0006   -0.0060    0.0042    0.0056   -0.0082
            Y    -0.0010    0.0081    0.0060   -0.0056   -0.0082    0.0042
            Z     0.0006   -0.0010   -0.0060    0.0082    0.0042   -0.0056
 AT.   8 AS X     0.0081   -0.0006    0.0060    0.0042   -0.0056   -0.0082
            Y    -0.0010    0.0081   -0.0060   -0.0056    0.0082    0.0042
            Z    -0.0006    0.0010   -0.0060   -0.0082    0.0042    0.0056
 AT.   9 S  X     0.0202   -0.0245    0.0259   -0.0290    0.0159   -0.0250
            Y    -0.0153    0.0202    0.0259   -0.0159    0.0250   -0.0290
            Z     0.0245    0.0153   -0.0259    0.0250   -0.0290    0.0159
 AT.  10 S  X     0.0202   -0.0245   -0.0259   -0.0290   -0.0159   -0.0250
            Y    -0.0153    0.0202   -0.0259   -0.0159   -0.0250   -0.0290
            Z    -0.0245   -0.0153   -0.0259   -0.0250   -0.0290   -0.0159
 AT.  11 S  X     0.0202    0.0245    0.0259   -0.0290   -0.0159    0.0250
            Y     0.0153    0.0202   -0.0259    0.0159    0.0250   -0.0290
            Z    -0.0245    0.0153    0.0259   -0.0250   -0.0290    0.0159
 AT.  12 S  X     0.0202    0.0245   -0.0259   -0.0290    0.0159    0.0250
            Y     0.0153    0.0202    0.0259    0.0159   -0.0250   -0.0290
            Z     0.0245   -0.0153    0.0259    0.0250   -0.0290   -0.0159

 *******************************************************************************

 VIBRATIONAL TEMPERATURES (K) [MODE NUMBER;IRREP]

 TO MODES
   243.9 [   4;F  ]   243.9 [   5;F  ]   243.9 [   6;F  ]   250.3 [   7;A  ]
   266.7 [   8;E  ]   266.7 [   9;E  ]   341.3 [  10;F  ]   341.3 [  11;F  ]
   341.3 [  12;F  ]   410.5 [  13;A  ]   412.2 [  14;F  ]   412.2 [  15;F  ]
   412.2 [  16;F  ]   422.7 [  17;E  ]   422.7 [  18;E  ]   430.0 [  19;F  ]
   430.0 [  20;F  ]   430.0 [  21;F  ]   450.8 [  22;F  ]   450.8 [  23;F  ]
   450.8 [  24;F  ]   527.9 [  25;F  ]   527.9 [  26;F  ]   527.9 [  27;F  ]
   530.9 [  28;E  ]   530.9 [  29;E  ]   572.4 [  30;F  ]   572.4 [  31;F  ]
   572.4 [  32;F  ]   579.4 [  33;A  ]   616.6 [  34;F  ]   616.6 [  35;F  ]
   616.6 [  36;F  ]

 *******************************************************************************

 HARMONIC VIBRATIONAL CONTRIBUTIONS TO THERMODYNAMIC FUNCTIONS AT GIVEN
 TEMPERATURE AND PRESSURE:

 (EL = ELECTRONIC ENERGY
  E0 = ZERO-POINT ENERGY
  ET = THERMAL CONTRIBUTION TO THE VIBRATIONAL ENERGY
  PV = PRESSURE * VOLUME
  TS = TEMPERATURE * ENTROPY)

                          AU/CELL             EV/CELL                 KJ/MOL
 EL            :  -16065.156783661951 -437155.140621336177   -42179063.19139644
 E0            :       0.022905618960       0.623293579522          60.13869410


 *******************************************************************************

 THERMODYNAMIC FUNCTIONS WITH VIBRATIONAL CONTRIBUTIONS

 AT (T =  298.15 K, P =   0.10132500E+00 MPA):

                          AU/CELL             EV/CELL                 KJ/MOL
 ET            :       0.013997126964       0.380881188309          36.74945166
 PV            :       0.000004004211       0.000108960132           0.01051306
 TS            :       0.023199146999       0.631280883554          60.90935186
 ET+PV-TS      :      -0.009198015824      -0.250290735113         -24.14938714
 EL+E0+ET+PV-TS:  -16065.143076058815 -437154.767618491780   -42179027.20208948

 OTHER THERMODYNAMIC FUNCTIONS:

                      mHARTREE/(CELL*K)     mEV/(CELL*K)              J/(MOL*K)
 ENTROPY       :       0.077810320307       2.117326458341         204.29096718
 HEAT CAPACITY :       0.086901201362       2.364701908178         228.15907202

 *******************************************************************************
 TTTTTTTTTTTTTTTTTTTTTTTTTTTTTT END         TELAPSE    13407.23 TCPU    11572.11
 EEEEEEEEEE TERMINATION  DATE 29 05 2023 TIME 21:46:03.4
