         256 PROCESSORS WORKING

         
 *******************************************************************************
 *                                                                             *
 *                               CRYSTAL23                                     *
 *                      public : 1.0.1 - October 2022                          *
 *                       HTTP://WWW.CRYSTAL.UNITO.IT                           *
 *                                                                             *
 *                              MAIN AUTHORS                                   *
 *                                                                             *
 *  R. DOVESI(1,11), V.R. SAUNDERS(2), C. ROETTI(1,11), R. ORLANDO(1,11),      *
 *  C.M. ZICOVICH-WILSON(1,3), F. PASCALE(4), B. CIVALLERI(1,11),              *
 *  K. DOLL(5), N.M. HARRISON(6), I.J. BUSH(7), Ph. D'ARCO(8),                 *
 *  M. LLUNELL(9), M. CAUSA'(10), Y. NOEL(8), L. MASCHIO(1,11), A. ERBA(1,11)  *
 *  M. RE'RAT(14), S. CASASSA(1,11), B.G. SEARLE(2), J.K. DESMARAIS(1)         *
 *                                                                             *
 *        CONTRIBUTIONS TO THE CODE HAVE ALSO BEEN GIVEN BY                    *
 *                                                                             *
 *  M. FERRABONE(1,11), M. DE LA PIERRE(1,11), M. FERRERO(1,11),               *
 *  J. BAIMA(1,11), E. ALBANESE(1,11), M.F. PEINTINGER(12), R. BAST(13),       *
 *  B. KIRTMAN(15), V. LACIVITA(1,11), R. DEMICHELIS(1,16)                     *
 *  G. BRANDEBURG(17), S. SALUSTRO(1,11), G. SANSONE(1,11)                     *
 *  M.T. RUGGIERO(18), L.E. DAGA(1), L. DONA'(1), A. COSSARD(1)                *
 *                                                                             *
 * (1) THEORETICAL CHEMISTRY GROUP - UNIVERSITA' DI TORINO - TORINO (ITALY)    *
 * (2) SCIENTIFIC COMPUTING DEPARTMENT - STFC DARESBURY (UK)                   *
 * (3) UNIVERSIDAD AUTONOMA DEL ESTADO DE MORELOS - CUERNAVACA (MEXICO)        *
 * (4) UNIVERSITE' DE LORRAINE - NANCY (FRANCE)                                *
 * (5) UNIVERSITAET STUTTGART- STUTTGART (GERMANY)                             *
 * (6) IMPERIAL COLLEGE - LONDON (UK)                                          *
 * (7) SCIENTIFIC COMPUTING DEPARTMENT - STFC RAL (UK)                         *
 * (8) UPMC - SORBONNE UNIVERSITES - PARIS (FRANCE)                            *
 * (9) UNIVERSIDAD DE BARCELONA - BARCELONA (SPAIN)                            *
 *(10) UNIVERSITA' DI NAPOLI "FEDERICO II" - NAPOLI (ITALY)                    *
 *(11) NIS - NANOSTRUCTURED INTERFACES AND SURFACES - TORINO (ITALY)           *
 *(12) MPI FUER CHEMISCHE ENERGIEKONVERSION - MUELHEIM AN DER RUHR (GERMANY)   *
 *(13) UNIVERSITY OF TROMSO - TROMSO (NORWAY)                                  *
 *(14) UNIVERSITE' DE PAU ET DES PAYS DE L'ADOUR - PAU (FRANCE)                *
 *(15) UNIVERSITY OF CALIFORNIA SANTA BARBARA - SANTA BARBARA (USA)            *
 *(16) CURTIN UNIVERSITY - PERTH (AUSTRALIA)                                   *
 *(17) UNIVERSITY COLLEGE LONDON - LONDON (UK)                                 *
 *(18) UNIVERSITY OF VERMONT - BURLINGTON (USA)                                *
 *                                                                             *
 *******************************************************************************
 EEEEEEEEEE STARTING  DATE 29 05 2023 TIME 18:10:08.3
 ICSD_CollCode42415.cif                                                          

 CRYSTAL CALCULATION
 (INPUT ACCORDING TO THE INTERNATIONAL TABLES FOR X-RAY CRYSTALLOGRAPHY)
 CRYSTAL FAMILY                       :  ORTHORHOMBIC
 CRYSTAL CLASS  (GROTH - 1921)        :  ORTHORHOMBIC BIPYRAMIDAL             

 SPACE GROUP (CENTROSYMMETRIC)        :  P N N M         

 LATTICE PARAMETERS  (ANGSTROMS AND DEGREES) - CONVENTIONAL CELL
        A           B           C        ALPHA        BETA       GAMMA
     4.44310     5.42450     3.38710    90.00000    90.00000    90.00000


 NUMBER OF IRREDUCIBLE ATOMS IN THE CONVENTIONAL CELL:    2

 INPUT COORDINATES

 ATOM AT. N.              COORDINATES
   1  26     5.000000000000E-01  5.000000000000E-01  5.000000000000E-01
   2  16     7.005200000000E-01  1.217300000000E-01  5.000000000000E-01

 *******************************************************************************

 << INFORMATION >>: FROM NOW ON, ALL COORDINATES REFER TO THE PRIMITIVE CELL

 *******************************************************************************

 LATTICE PARAMETERS  (ANGSTROMS AND DEGREES) - PRIMITIVE CELL
       A          B          C        ALPHA      BETA     GAMMA        VOLUME
    4.44310    5.42450    3.38710    90.00000  90.00000  90.00000     81.634516

 COORDINATES OF THE EQUIVALENT ATOMS (FRACTIONAL UNITS)

 N. ATOM EQUIV AT. N.          X                  Y                  Z

   1   1   1   26 FE   -5.00000000000E-01 -5.00000000000E-01 -5.00000000000E-01
   2   1   2   26 FE    0.00000000000E+00  0.00000000000E+00  0.00000000000E+00

   3   2   1   16 S    -2.99480000000E-01  1.21730000000E-01 -5.00000000000E-01
   4   2   2   16 S     2.99480000000E-01 -1.21730000000E-01 -5.00000000000E-01
   5   2   3   16 S     2.00520000000E-01  3.78270000000E-01  0.00000000000E+00
   6   2   4   16 S    -2.00520000000E-01 -3.78270000000E-01  0.00000000000E+00

 NUMBER OF SYMMETRY OPERATORS         :    8
 *******************************************************************************
 * GEOMETRY EDITING - INPUT COORDINATES ARE GIVEN IN ANGSTROM         
 *******************************************************************************

 GEOMETRY NOW FULLY CONSISTENT WITH THE GROUP

 FRQFRQFRQFRQFRQFRQFRQFRQFRQFRQFRQFRQFRQFRQFRQFRQFRQFRQFRQFRQFRQFRQFRQFRQFRQFRQ

                       FREQUENCY CALCULATION

 OPTIMIZATION PERFORMED BEFORE FREQUENCIES CALCULATION
 *******************************************************************************
 INFORMATION **** NEW DEFAULT **** FINALRUN 4 FOR GEOMETRY OPTIMIZATIONS
 INFORMATION **** NEW DEFAULT **** OPTGEOM OPTIMIZES ATOMIC COORDINATES ONLY
 INFORMATION **** NEW DEFAULT **** TOL. ON ATOMIC DISP TO REDEFINE REF. GEOMETRY: 0.8 Angs
 INFORMATION **** NEW DEFAULT **** N POINTS TO REDEFINE REF. GEOMETRY: N OF OPT DEGS OF FREEDOM
 INFORMATION **** NEW DEFAULT **** TOL. ON ENERGY TO REDEFINE REF. GEOMETRY: 10**-3*(5*N. ATOMS)
 INFORMATION **** FULLOPTG **** FULL OPTIMIZATION (ATOMS AND CELL PARAMETERS)

 IMPORTANT INFORMATION:
 THE COORDINATE SYSTEM ADOPTED IN THE OPTIMIZATION IS NOT IN
 GENERAL HOMOGENEOUS UNITS. FOR THIS REASON THE GRADIENT AND 
 HESSIAN MATRIX IN TERMS OF THIS SYSTEM ARE GIVEN WITHOUT
 UNITS. FOR MORE DETAILS SEE THE MANUAL.

 *******************************************************************************
 COMBINED CELL/ATOM OPTIMIZATION CONTROL

 INITIAL TRUST RADIUS         0.50000 MAXIMUM TRUST RADIUS               0.50000
 MAXIMUM GRADIENT COMPONENT   0.00005 MAXIMUM DISPLACEMENT COMPONENT     0.00018
 R.M.S. OF GRADIENT COMPONENT 0.00003 R.M.S. OF DISPLACEMENT COMPONENTS  0.00012
 THRESHOLD ON ENERGY CHANGE 0.100E-06 EXTRAPOLATING POLYNOMIAL ORDER           2
 MAXIMUM ALLOWED NUMBER OF STEPS   -1 SORTING OF ENERGY POINTS:               NO
 ANALYTICAL  GRADIENT                 HESSIAN UPDATING                      BFGS
 STEP SIZE NUMERICAL GRADIENT 0.00100
 INITIAL HESSIAN MATRIX: SCHLEGEL MODEL 2
 *******************************************************************************

 INFORMATION **** INPFREQ **** IR INTENSITIES EVALUATED THROUGH CPHF APPROACH
 INFORMATION **** INPFREQ **** NEW DEFAULT - IMPOSING ECKART CONDITIONS TO THE HESSIAN

 GCALCO - MAX INDICES DIRECT LATTICE VECTOR    14    11    19
 NO.OF VECTORS CREATED 6999 STARS 1053 RMAX    97.30895 BOHR

 GEOMETRY FOR WAVE FUNCTION - DIMENSIONALITY OF THE SYSTEM    3
 (NON PERIODIC DIRECTION: LATTICE PARAMETER FORMALLY SET TO 500)
 *******************************************************************************
 LATTICE PARAMETERS (ANGSTROMS AND DEGREES) - BOHR = 0.5291772083 ANGSTROM
 PRIMITIVE CELL - CENTRING CODE 1/0 VOLUME=    81.634516 - DENSITY  4.877 g/cm^3
         A              B              C           ALPHA      BETA       GAMMA 
     4.44310000     5.42450000     3.38710000    90.000000  90.000000  90.000000
 *******************************************************************************
 ATOMS IN THE ASYMMETRIC UNIT    2 - ATOMS IN THE UNIT CELL:    6
     ATOM                 X/A                 Y/B                 Z/C    
 *******************************************************************************
      1 T  26 FE   -5.000000000000E-01 -5.000000000000E-01 -5.000000000000E-01
      2 F  26 FE    0.000000000000E+00 -2.220446049250E-16 -1.110223024625E-16
      3 T  16 S    -2.994800000000E-01  1.217300000000E-01 -5.000000000000E-01
      4 F  16 S     2.994800000000E-01 -1.217300000000E-01 -5.000000000000E-01
      5 F  16 S     2.005200000000E-01  3.782700000000E-01 -1.110223024625E-16
      6 F  16 S    -2.005200000000E-01 -3.782700000000E-01 -1.110223024625E-16

 T = ATOM BELONGING TO THE ASYMMETRIC UNIT

 ****    8 SYMMOPS - TRANSLATORS IN FRACTIONAL UNITS
 **** MATRICES AND TRANSLATORS IN THE CRYSTALLOGRAPHIC REFERENCE FRAME
   V INV                    ROTATION MATRICES                   TRANSLATORS
   1   1  1.00  0.00  0.00  0.00  1.00  0.00  0.00  0.00  1.00  0.00  0.00  0.00
   2   2 -1.00  0.00  0.00  0.00 -1.00  0.00  0.00  0.00  1.00  0.00  0.00  0.00
   3   3  1.00  0.00  0.00  0.00 -1.00  0.00  0.00  0.00 -1.00  0.50  0.50  0.50
   4   4 -1.00  0.00  0.00  0.00  1.00  0.00  0.00  0.00 -1.00  0.50  0.50  0.50
   5   5 -1.00  0.00  0.00  0.00 -1.00  0.00  0.00  0.00 -1.00  0.00  0.00  0.00
   6   6  1.00  0.00  0.00  0.00  1.00  0.00  0.00  0.00 -1.00  0.00  0.00  0.00
   7   7 -1.00  0.00  0.00  0.00  1.00  0.00  0.00  0.00  1.00  0.50  0.50  0.50
   8   8  1.00  0.00  0.00  0.00 -1.00  0.00  0.00  0.00  1.00  0.50  0.50  0.50

 DIRECT LATTICE VECTORS CARTESIAN COMPONENTS (ANGSTROM)
          X                    Y                    Z
   0.444310000000E+01   0.000000000000E+00   0.000000000000E+00
   0.000000000000E+00   0.542450000000E+01   0.000000000000E+00
   0.000000000000E+00   0.000000000000E+00   0.338710000000E+01


 CARTESIAN COORDINATES - PRIMITIVE CELL
 *******************************************************************************
 *      ATOM          X(ANGSTROM)         Y(ANGSTROM)         Z(ANGSTROM)
 *******************************************************************************
    1    26 FE    2.221550000000E+00  2.712250000000E+00  1.693550000000E+00
    2    26 FE    0.000000000000E+00 -1.204480959416E-15 -3.760436406708E-16
    3    16 S    -1.330619588000E+00  6.603243850000E-01  1.693550000000E+00
    4    16 S     1.330619588000E+00 -6.603243850000E-01  1.693550000000E+00
    5    16 S     8.909304120000E-01  2.051925615000E+00 -3.760436406708E-16
    6    16 S    -8.909304120000E-01 -2.051925615000E+00 -3.760436406708E-16

 *******************************************************************************
 LOCAL ATOMIC FUNCTIONS BASIS SET
 *******************************************************************************
   ATOM   X(AU)   Y(AU)   Z(AU)  N. TYPE  EXPONENT  S COEF   P COEF   D/F/G COEF
 *******************************************************************************
   1 FE   4.198   5.125   3.200
                                  1 S  
                                         3.008E+05 2.281E-04 0.000E+00 0.000E+00
                                         4.509E+04 1.768E-03 0.000E+00 0.000E+00
                                         1.026E+04 9.193E-03 0.000E+00 0.000E+00
                                         2.905E+03 3.736E-02 0.000E+00 0.000E+00
                                         9.461E+02 1.215E-01 0.000E+00 0.000E+00
                                         3.399E+02 2.882E-01 0.000E+00 0.000E+00
                                         1.319E+02 4.113E-01 0.000E+00 0.000E+00
                                         5.211E+01 2.152E-01 0.000E+00 0.000E+00
                                  2 S  
                                         3.295E+02-2.475E-02 0.000E+00 0.000E+00
                                         1.019E+02-1.168E-01 0.000E+00 0.000E+00
                                         1.624E+01 5.529E-01 0.000E+00 0.000E+00
                                         6.884E+00 5.360E-01 0.000E+00 0.000E+00
                                  3 S  
                                         1.047E+01-2.291E-01 0.000E+00 0.000E+00
                                         1.736E+00 7.116E-01 0.000E+00 0.000E+00
                                  4 S  
                                         1.257E+00 1.000E+00 0.000E+00 0.000E+00
                                  5 S  
                                         5.755E-01 1.000E+00 0.000E+00 0.000E+00
                                  6 S  
                                         1.559E-01 1.000E+00 0.000E+00 0.000E+00
                           7-     9 P  
                                         1.585E+03 0.000E+00 2.379E-03 0.000E+00
                                         3.754E+02 0.000E+00 1.925E-02 0.000E+00
                                         1.203E+02 0.000E+00 9.002E-02 0.000E+00
                                         4.479E+01 0.000E+00 2.580E-01 0.000E+00
                                         1.783E+01 0.000E+00 4.149E-01 0.000E+00
                                         7.225E+00 0.000E+00 2.421E-01 0.000E+00
                          10-    12 P  
                                         2.814E+01 0.000E+00-2.904E-02 0.000E+00
                                         3.874E+00 0.000E+00 5.531E-01 0.000E+00
                                         1.541E+00 0.000E+00 9.677E-01 0.000E+00
                          13-    15 P  
                                         6.337E-01 0.000E+00 1.000E+00 0.000E+00
                          16-    18 P  
                                         2.000E-01 0.000E+00 1.000E+00 0.000E+00
                          19-    23 D  
                                         6.200E+01 0.000E+00 0.000E+00 1.197E-02
                                         1.787E+01 0.000E+00 0.000E+00 7.321E-02
                                         6.274E+00 0.000E+00 0.000E+00 2.310E-01
                                         2.355E+00 0.000E+00 0.000E+00 3.991E-01
                          24-    28 D  
                                         8.417E-01 0.000E+00 0.000E+00 1.000E+00
                          29-    33 D  
                                         2.611E-01 0.000E+00 0.000E+00 1.000E+00
                          34-    40 F  
                                         1.198E+00 0.000E+00 0.000E+00 1.000E+00
   2 FE   0.000  -0.000  -0.000
   3 S   -2.515   1.248   3.200
                                 81 S  
                                         6.070E+04 5.470E-04 0.000E+00 0.000E+00
                                         9.103E+03 4.230E-03 0.000E+00 0.000E+00
                                         2.071E+03 2.175E-02 0.000E+00 0.000E+00
                                         5.860E+02 8.510E-02 0.000E+00 0.000E+00
                                         1.906E+02 2.480E-01 0.000E+00 0.000E+00
                                         6.763E+01 4.670E-01 0.000E+00 0.000E+00
                                         2.513E+01 3.643E-01 0.000E+00 0.000E+00
                                 82 S  
                                         1.126E+02 2.167E-02 0.000E+00 0.000E+00
                                         3.480E+01 9.360E-02 0.000E+00 0.000E+00
                                         6.512E+00-2.607E-01 0.000E+00 0.000E+00
                                 83 S  
                                         3.240E+00 1.284E+00 0.000E+00 0.000E+00
                                         1.548E+00 6.604E-01 0.000E+00 0.000E+00
                                 84 S  
                                         4.487E-01 1.000E+00 0.000E+00 0.000E+00
                                 85 S  
                                         1.553E-01 1.000E+00 0.000E+00 0.000E+00
                          86-    88 P  
                                         5.644E+02 0.000E+00 2.480E-03 0.000E+00
                                         1.334E+02 0.000E+00 1.968E-02 0.000E+00
                                         4.247E+01 0.000E+00 8.998E-02 0.000E+00
                                         1.562E+01 0.000E+00 2.571E-01 0.000E+00
                                         6.109E+00 0.000E+00 4.352E-01 0.000E+00
                          89-    91 P  
                                         2.036E+00 0.000E+00 1.000E+00 0.000E+00
                          92-    94 P  
                                         4.338E-01 0.000E+00 1.000E+00 0.000E+00
                          95-    97 P  
                                         1.305E-01 0.000E+00 1.000E+00 0.000E+00
                          98-   102 D  
                                         4.107E-01 0.000E+00 0.000E+00 1.000E+00
   4 S    2.515  -1.248   3.200
   5 S    1.684   3.878  -0.000
   6 S   -1.684  -3.878  -0.000
 INFORMATION **** SET_MPP **** PCRYSTAL CALCULATION
 INFORMATION **** READM2 **** NEW DEFAULT: FOCK/KS MATRIX MIXING SET TO 30 %
 INFORMATION **** READM2 **** NEW DEFAULT: FULL DIRECT SCF MODE
 INFORMATION **** READM2 **** NEW DEFAULT: COULOMB BIPOLAR BUFFER SET TO 32 Mb
 INFORMATION **** READM2 **** NEW DEFAULT: EXCHANGE BIPOLAR BUFFER SET TO 32 Mb

 *******************************************************************************
 NEW DEFAULT: DFT INTEGRATION GRID INCREASED TO XLGRID
 NEW DEFAULT: DIIS ACCELERATOR ACTIVE
 USE KEYWORD NODIIS TO TURN IT OFF
 *******************************************************************************

 INFORMATION **** RDDFTP **** MAX N. OF POINTS ALLOWED IN A BATCH FOR NUMERICAL INTEGRATION         200
 INFORMATION **** TOLINTEG **** COULOMB AND EXCHANGE SERIES TOLERANCES MODIFIED
 INFORMATION **** TOLDEE **** SCF TOL ON TOTAL ENERGY SET TO          11
 INFORMATION **** EXCHSIZE **** EXCHANGE BIPOLAR BUFFER SIZE SET TO    12012489
 INFORMATION **** MAXCYCLE **** MAX NUMBER OF SCF CYCLES SET TO         150
 *******************************************************************************
 N. OF ATOMS PER CELL         6  COULOMB OVERLAP TOL         (T1) 10**   -7
 NUMBER OF SHELLS            68  COULOMB PENETRATION TOL     (T2) 10**   -7
 NUMBER OF AO               168  EXCHANGE OVERLAP TOL        (T3) 10**   -7
 N. OF ELECTRONS PER CELL   116  EXCHANGE PSEUDO OVP (F(G))  (T4) 10**   -9
 CORE ELECTRONS PER CELL     76  EXCHANGE PSEUDO OVP (P(G))  (T5) 10**  -30
 N. OF SYMMETRY OPERATORS     8  POLE ORDER IN MONO ZONE                  4
 *******************************************************************************
 TYPE OF CALCULATION :  UNRESTRICTED OPEN SHELL
 KOHN-SHAM HAMILTONIAN

 (EXCHANGE)[CORRELATION] FUNCTIONAL:(PERDEW-BURKE-ERNZERHOF)[PERDEW-BURKE-ERNZERHOF]


 HYBRID EXCHANGE - PERCENTAGE OF FOCK EXCHANGE    25.0000

 SPIN POLARIZED DFT SELECTED

 CAPPA:IS1  8;IS2  8;IS3  8; K PTS MONK NET 125; SYMMOPS:K SPACE   8;G SPACE   8

 *******************************************************************************
 MAX NUMBER OF SCF CYCLES     150  CONVERGENCE ON DELTAP        10**-21
 WEIGHT OF F(I) IN F(I+1)      30% CONVERGENCE ON ENERGY        10**-11
 SHRINK. FACT.(MONKH.)    8  8  8  NUMBER OF K POINTS IN THE IBZ    125
 SHRINKING FACTOR(GILAT NET)    8  NUMBER OF K POINTS(GILAT NET)    125
 *******************************************************************************
 *** K POINTS COORDINATES (OBLIQUE COORDINATES IN UNITS OF IS =  8)
   1-R(  0  0  0)   2-C(  1  0  0)   3-C(  2  0  0)   4-C(  3  0  0)
   5-R(  4  0  0)   6-C(  0  1  0)   7-C(  1  1  0)   8-C(  2  1  0)
   9-C(  3  1  0)  10-C(  4  1  0)  11-C(  0  2  0)  12-C(  1  2  0)
  13-C(  2  2  0)  14-C(  3  2  0)  15-C(  4  2  0)  16-C(  0  3  0)
  17-C(  1  3  0)  18-C(  2  3  0)  19-C(  3  3  0)  20-C(  4  3  0)
  21-R(  0  4  0)  22-C(  1  4  0)  23-C(  2  4  0)  24-C(  3  4  0)
  25-R(  4  4  0)  26-C(  0  0  1)  27-C(  1  0  1)  28-C(  2  0  1)
  29-C(  3  0  1)  30-C(  4  0  1)  31-C(  0  1  1)  32-C(  1  1  1)
  33-C(  2  1  1)  34-C(  3  1  1)  35-C(  4  1  1)  36-C(  0  2  1)
  37-C(  1  2  1)  38-C(  2  2  1)  39-C(  3  2  1)  40-C(  4  2  1)
  41-C(  0  3  1)  42-C(  1  3  1)  43-C(  2  3  1)  44-C(  3  3  1)
  45-C(  4  3  1)  46-C(  0  4  1)  47-C(  1  4  1)  48-C(  2  4  1)
  49-C(  3  4  1)  50-C(  4  4  1)  51-C(  0  0  2)  52-C(  1  0  2)
  53-C(  2  0  2)  54-C(  3  0  2)  55-C(  4  0  2)  56-C(  0  1  2)
  57-C(  1  1  2)  58-C(  2  1  2)  59-C(  3  1  2)  60-C(  4  1  2)
  61-C(  0  2  2)  62-C(  1  2  2)  63-C(  2  2  2)  64-C(  3  2  2)
  65-C(  4  2  2)  66-C(  0  3  2)  67-C(  1  3  2)  68-C(  2  3  2)
  69-C(  3  3  2)  70-C(  4  3  2)  71-C(  0  4  2)  72-C(  1  4  2)
  73-C(  2  4  2)  74-C(  3  4  2)  75-C(  4  4  2)  76-C(  0  0  3)
  77-C(  1  0  3)  78-C(  2  0  3)  79-C(  3  0  3)  80-C(  4  0  3)
  81-C(  0  1  3)  82-C(  1  1  3)  83-C(  2  1  3)  84-C(  3  1  3)
  85-C(  4  1  3)  86-C(  0  2  3)  87-C(  1  2  3)  88-C(  2  2  3)
  89-C(  3  2  3)  90-C(  4  2  3)  91-C(  0  3  3)  92-C(  1  3  3)
  93-C(  2  3  3)  94-C(  3  3  3)  95-C(  4  3  3)  96-C(  0  4  3)
  97-C(  1  4  3)  98-C(  2  4  3)  99-C(  3  4  3) 100-C(  4  4  3)
 101-R(  0  0  4) 102-C(  1  0  4) 103-C(  2  0  4) 104-C(  3  0  4)
 105-R(  4  0  4) 106-C(  0  1  4) 107-C(  1  1  4) 108-C(  2  1  4)
 109-C(  3  1  4) 110-C(  4  1  4) 111-C(  0  2  4) 112-C(  1  2  4)
 113-C(  2  2  4) 114-C(  3  2  4) 115-C(  4  2  4) 116-C(  0  3  4)
 117-C(  1  3  4) 118-C(  2  3  4) 119-C(  3  3  4) 120-C(  4  3  4)
 121-R(  0  4  4) 122-C(  1  4  4) 123-C(  2  4  4) 124-C(  3  4  4)
 125-R(  4  4  4)

 DIRECT LATTICE VECTORS COMPON. (A.U.)     RECIP. LATTICE VECTORS COMPON. (A.U.) 
        X            Y            Z              X            Y            Z
    8.3962422    0.0000000    0.0000000      0.7483330    0.0000000    0.0000000
    0.0000000   10.2508194    0.0000000      0.0000000    0.6129447    0.0000000
    0.0000000    0.0000000    6.4006914      0.0000000    0.0000000    0.9816417

 DISK SPACE FOR EIGENVECTORS (FTN 10)     6830208 REALS

 SYMMETRY ADAPTION OF THE BLOCH FUNCTIONS ENABLED
 TTTTTTTTTTTTTTTTTTTTTTTTTTTTTT gordsh1     TELAPSE        7.54 TCPU        4.68

 MATRIX SIZE: P(G) 1209780, F(G)   97554, P(G) IRR   91717, F(G) IRR   16509
 MAX G-VECTOR INDEX FOR 1- AND 2-ELECTRON INTEGRALS 551

 TTTTTTTTTTTTTTTTTTTTTTTTTTTTTT INPUT       TELAPSE        7.55 TCPU        4.69

 NEIGHBORS OF THE NON-EQUIVALENT ATOMS

 N = NUMBER OF NEIGHBORS AT DISTANCE R
    ATOM  N     R/ANG      R/AU   NEIGHBORS (ATOM LABELS AND CELL INDICES)
   1 FE   2     2.2370     4.2273    3 S    1 0 0    4 S    0 1 0
   1 FE   4     2.2527     4.2570    5 S    0 0 0    5 S    0 0 1    6 S    1 1 0
                                     6 S    1 1 1
   1 FE   2     3.3871     6.4007    1 FE   0 0-1    1 FE   0 0 1
   1 FE   2     3.4883     6.5919    3 S    1 1 0    4 S    0 0 0
   1 FE   4     3.6044     6.8113    5 S    1 0 0    5 S    1 0 1    6 S    0 1 0
                                     6 S    0 1 1
   1 FE   8     3.8935     7.3577    2 FE   0 0 0    2 FE   0 0 1    2 FE   1 0 0
                                     2 FE   0 1 0    2 FE   1 0 1    2 FE   0 1 1
                                     2 FE   1 1 0    2 FE   1 1 1

   3 S    1     2.2179     4.1912    4 S   -1 0 0
   3 S    1     2.2370     4.2273    1 FE  -1 0 0
   3 S    2     2.2527     4.2570    2 FE   0 0 0    2 FE   0 0 1
   3 S    1     2.9709     5.6142    4 S    0 0 0
   3 S    4     3.1209     5.8976    5 S    0 0 0    5 S    0 0 1    5 S   -1 0 0
                                     5 S   -1 0 1
   3 S    4     3.2277     6.0994    6 S    0 0 0    6 S    0 0 1    6 S    0 1 0
                                     6 S    0 1 1


 SYMMETRY ALLOWED ELASTIC DISTORTION 1
  0.5773503  0.0000000  0.0000000
  0.0000000  0.5773503  0.0000000
  0.0000000  0.0000000  0.5773503

 SYMMETRY ALLOWED ELASTIC DISTORTION 2
  0.8164966  0.0000000  0.0000000
  0.0000000 -0.4082483  0.0000000
  0.0000000  0.0000000 -0.4082483

 SYMMETRY ALLOWED ELASTIC DISTORTION 3
  0.0000000  0.0000000  0.0000000
  0.0000000  0.7071068  0.0000000
  0.0000000  0.0000000 -0.7071068

 SYMMETRY ALLOWED INTERNAL DEGREE(S) OF FREEDOM:   2
 TTTTTTTTTTTTTTTTTTTTTTTTTTTTTT SYMM        TELAPSE        7.67 TCPU        4.81
 TTTTTTTTTTTTTTTTTTTTTTTTTTTTTT INT_SCREEN  TELAPSE        7.67 TCPU        4.81

 *******************************************************************************
 *                             OPTIMIZATION STARTS                             *
 *******************************************************************************
 RECLASIFICATION OF INDICES FOR INTEGRAL CALC ACCORDING TO DIFFERENT CRITERIA:
           FIXDELTE                  FIXDELTX              FIXDELTN
          0.10000000E-01           0.80000000                 10
 *******************************************************************************

 *******************************************************************************
 COORDINATE AND CELL OPTIMIZATION - POINT    1

 DFT PARAMETERS

     ATOM       ELECTRONS   NET CHARGE   R(ANGSTROM)
   1  26  FE     26.0000      0.0000     1.26000000
   3  16  S      16.0000      0.0000     1.04000000

 SIZE OF GRID=      36375
 TTTTTTTTTTTTTTTTTTTTTTTTTTTTTT MAKE_GRID2  TELAPSE       10.51 TCPU        7.64
 BECKE WEIGHT FUNCTION
 RADSAFE =     2.00
 TOLERANCES - DENSITY:10**- 6; POTENTIAL:10**- 9; GRID WGT:10**-14

 RADIAL INTEGRATION  - INTERVALS (POINTS,UPPER LIMIT):            1( 99,  4.0*R)

 ANGULAR INTEGRATION - INTERVALS (ACCURACY LEVEL [N. POINTS] UPPER LIMIT):
  1(  6[ 146]   0.2)  2( 11[ 302]   0.5)  3( 14[ 590]   0.9)  4( 18[1454]   3.5)
  5( 14[ 590]9999.0)
 TTTTTTTTTTTTTTTTTTTTTTTTTTTTTT INT_CALC    TELAPSE       10.53 TCPU        7.66

 *******************************************************************************
 ICSD_CollCode42415.cif                                                          
 CRYSTAL - SCF - TYPE OF CALCULATION :  UNRESTRICTED OPEN SHELL
 *******************************************************************************

 CAPPA:IS1  8;IS2  8;IS3  8; K PTS MONK NET 125; SYMMOPS:K SPACE   8;G SPACE   8

 TTTTTTTTTTTTTTTTTTTTTTTTTTTTTT SDIK        TELAPSE       10.62 TCPU        7.68

 AAAAAAAAAAAAAAAAAAAAAAAAAAAAAAAAAAAAAAAAAAAAAAAAAAAAAAAAAAAAAAAAAAAAAAAAAAAAAAA
         ATOMIC WAVEFUNCTION(S)


 NUCLEAR CHARGE 26.0  SYMMETRY SPECIES            S    P    D
 N. ELECTRONS   26.0  NUMBER OF PRIMITIVE GTOS   17   11    6
                      NUMBER OF CONTRACTED GTOS   6    4    3
                      NUMBER OF CLOSED SHELLS     4    2    0
                      OPEN SHELL OCCUPATION       0    0    6

  ZNUC  SCFIT    TOTAL HF ENERGY   KINETIC ENERGY   VIRIAL THEOREM             ACCURACY
  26.0    27    -1.262303928E+03  1.262527654E+03 -1.999822796E+00  4.7E-06

 NUCLEAR CHARGE 16.0  SYMMETRY SPECIES            S    P
 N. ELECTRONS   16.0  NUMBER OF PRIMITIVE GTOS   14    8
                      NUMBER OF CONTRACTED GTOS   5    4
                      NUMBER OF CLOSED SHELLS     3    1
                      OPEN SHELL OCCUPATION       0    4

  ZNUC  SCFIT    TOTAL HF ENERGY   KINETIC ENERGY   VIRIAL THEOREM             ACCURACY
  16.0    11    -3.974118762E+02  3.986854297E+02 -1.996805618E+00  4.0E-06

 AAAAAAAAAAAAAAAAAAAAAAAAAAAAAAAAAAAAAAAAAAAAAAAAAAAAAAAAAAAAAAAAAAAAAAAAAAAAAAA

 TTTTTTTTTTTTTTTTTTTTTTTTTTTTTT MOQGAD      TELAPSE       10.63 TCPU        7.69
 TTTTTTTTTTTTTTTTTTTTTTTTTTTTTT SHELLXN     TELAPSE       15.37 TCPU       12.39
 TTTTTTTTTTTTTTTTTTTTTTTTTTTTTT MONMO3      TELAPSE       15.38 TCPU       12.39
 NUMERICALLY INTEGRATED DENSITY     58.0000039958     58.0000039958
 TTTTTTTTTTTTTTTTTTTTTTTTTTTTTT NUMDFT      TELAPSE       15.61 TCPU       12.62
 CYC   0 ETOT(AU) -4.120552508707E+03 DETOT -4.12E+03 tst  0.00E+00 PX  1.00E+00
 TTTTTTTTTTTTTTTTTTTTTTTTTTTTTT DIIS        TELAPSE       15.62 TCPU       12.63
 TTTTTTTTTTTTTTTTTTTTTTTTTTTTTT FDIK        TELAPSE       15.68 TCPU       12.67

    ALPHA      ELECTRONS
 INSULATING STATE
 TOP OF VALENCE BANDS -    BAND     58; K   66; EIG -1.6891769E-01 AU
 TOP OF VALENCE BANDS -    BAND     58; K    1; EIG -1.8170680E-01 AU
 BOTTOM OF VIRTUAL BANDS - BAND     59; K  121; EIG -1.2837602E-01 AU
 INDIRECT ENERGY BAND GAP:   1.1032 eV
 BOTTOM OF VIRTUAL BANDS - BAND     59; K    1; EIG -1.1936440E-01 AU

    BETA       ELECTRONS
 INSULATING STATE
 TOP OF VALENCE BANDS -    BAND     58; K   66; EIG -1.6891769E-01 AU
 TOP OF VALENCE BANDS -    BAND     58; K    1; EIG -1.8170680E-01 AU
 BOTTOM OF VIRTUAL BANDS - BAND     59; K  121; EIG -1.2837602E-01 AU
 INDIRECT ENERGY BAND GAP:   1.1032 eV
 BOTTOM OF VIRTUAL BANDS - BAND     59; K    1; EIG -1.1936440E-01 AU
 TTTTTTTTTTTTTTTTTTTTTTTTTTTTTT PDIG        TELAPSE       15.72 TCPU       12.71
 TTTTTTTTTTTTTTTTTTTTTTTTTTTTTT MOQGAD      TELAPSE       15.73 TCPU       12.72
 TTTTTTTTTTTTTTTTTTTTTTTTTTTTTT SHELLXN     TELAPSE       20.64 TCPU       17.59
 TTTTTTTTTTTTTTTTTTTTTTTTTTTTTT MONMO3      TELAPSE       20.65 TCPU       17.60
 NUMERICALLY INTEGRATED DENSITY     58.0000038506     58.0000038506
 TTTTTTTTTTTTTTTTTTTTTTTTTTTTTT NUMDFT      TELAPSE       20.89 TCPU       17.83
 CYC   1 ETOT(AU) -4.119126634247E+03 DETOT  1.43E+00 tst  0.00E+00 PX  1.00E+00
 TTTTTTTTTTTTTTTTTTTTTTTTTTTTTT DIIS        TELAPSE       20.89 TCPU       17.84
 DIIS TEST: 0.85903E+00 AT SCF   CYCLE   1 - MIX   30 %
 TTTTTTTTTTTTTTTTTTTTTTTTTTTTTT FDIK        TELAPSE       20.93 TCPU       17.87

    ALPHA      ELECTRONS
 INSULATING STATE
 TOP OF VALENCE BANDS -    BAND     58; K    4; EIG -1.9113555E-01 AU
 TOP OF VALENCE BANDS -    BAND     58; K    1; EIG -2.3156963E-01 AU
 BOTTOM OF VIRTUAL BANDS - BAND     59; K  121; EIG -1.6604386E-01 AU
 INDIRECT ENERGY BAND GAP:   0.6828 eV
 BOTTOM OF VIRTUAL BANDS - BAND     59; K    1; EIG -1.4790771E-01 AU

    BETA       ELECTRONS
 INSULATING STATE
 TOP OF VALENCE BANDS -    BAND     58; K    4; EIG -1.9113555E-01 AU
 TOP OF VALENCE BANDS -    BAND     58; K    1; EIG -2.3156963E-01 AU
 BOTTOM OF VIRTUAL BANDS - BAND     59; K  121; EIG -1.6604386E-01 AU
 INDIRECT ENERGY BAND GAP:   0.6828 eV
 BOTTOM OF VIRTUAL BANDS - BAND     59; K    1; EIG -1.4790771E-01 AU
 TTTTTTTTTTTTTTTTTTTTTTTTTTTTTT PDIG        TELAPSE       20.97 TCPU       17.91
 TTTTTTTTTTTTTTTTTTTTTTTTTTTTTT MOQGAD      TELAPSE       20.97 TCPU       17.91
 TTTTTTTTTTTTTTTTTTTTTTTTTTTTTT SHELLXN     TELAPSE       25.86 TCPU       22.76
 TTTTTTTTTTTTTTTTTTTTTTTTTTTTTT MONMO3      TELAPSE       25.86 TCPU       22.76
 NUMERICALLY INTEGRATED DENSITY     58.0000035300     58.0000035300
 TTTTTTTTTTTTTTTTTTTTTTTTTTTTTT NUMDFT      TELAPSE       26.10 TCPU       23.00
 CYC   2 ETOT(AU) -4.118510005669E+03 DETOT  6.17E-01 tst  1.74E-02 PX  1.47E-01
 TTTTTTTTTTTTTTTTTTTTTTTTTTTTTT DIIS        TELAPSE       26.11 TCPU       23.00
 DIIS TEST: 0.10965E+02 AT SCF   CYCLE   2 - DIIS ACTIVE - HISTORY:     2 CYCLES
 TTTTTTTTTTTTTTTTTTTTTTTTTTTTTT FDIK        TELAPSE       26.14 TCPU       23.03

    ALPHA      ELECTRONS
 INSULATING STATE
 TOP OF VALENCE BANDS -    BAND     58; K    4; EIG -1.6490476E-01 AU
 TOP OF VALENCE BANDS -    BAND     58; K    1; EIG -1.8302879E-01 AU
 BOTTOM OF VIRTUAL BANDS - BAND     59; K   11; EIG -6.7395236E-02 AU
 INDIRECT ENERGY BAND GAP:   2.6534 eV
 BOTTOM OF VIRTUAL BANDS - BAND     59; K    1; EIG -6.2932376E-02 AU

    BETA       ELECTRONS
 INSULATING STATE
 TOP OF VALENCE BANDS -    BAND     58; K    4; EIG -1.6490476E-01 AU
 TOP OF VALENCE BANDS -    BAND     58; K    1; EIG -1.8302879E-01 AU
 BOTTOM OF VIRTUAL BANDS - BAND     59; K   11; EIG -6.7395236E-02 AU
 INDIRECT ENERGY BAND GAP:   2.6534 eV
 BOTTOM OF VIRTUAL BANDS - BAND     59; K    1; EIG -6.2932376E-02 AU
 TTTTTTTTTTTTTTTTTTTTTTTTTTTTTT PDIG        TELAPSE       26.18 TCPU       23.08
 TTTTTTTTTTTTTTTTTTTTTTTTTTTTTT MOQGAD      TELAPSE       26.19 TCPU       23.08
 TTTTTTTTTTTTTTTTTTTTTTTTTTTTTT SHELLXN     TELAPSE       31.07 TCPU       27.93
 TTTTTTTTTTTTTTTTTTTTTTTTTTTTTT MONMO3      TELAPSE       31.07 TCPU       27.93
 NUMERICALLY INTEGRATED DENSITY     58.0000036564     58.0000036564
 TTTTTTTTTTTTTTTTTTTTTTTTTTTTTT NUMDFT      TELAPSE       31.31 TCPU       28.17
 CYC   3 ETOT(AU) -4.119220199525E+03 DETOT -7.10E-01 tst  9.45E-03 PX  1.17E-01
 TTTTTTTTTTTTTTTTTTTTTTTTTTTTTT DIIS        TELAPSE       31.32 TCPU       28.17
 DIIS TEST: 0.10351E-01 AT SCF   CYCLE   3 - DIIS ACTIVE - HISTORY:     3 CYCLES
 TTTTTTTTTTTTTTTTTTTTTTTTTTTTTT FDIK        TELAPSE       31.40 TCPU       28.25

    ALPHA      ELECTRONS
 INSULATING STATE
 TOP OF VALENCE BANDS -    BAND     58; K    4; EIG -1.6251113E-01 AU
 TOP OF VALENCE BANDS -    BAND     58; K    1; EIG -1.8309675E-01 AU
 BOTTOM OF VIRTUAL BANDS - BAND     59; K   16; EIG -5.4095183E-02 AU
 INDIRECT ENERGY BAND GAP:   2.9501 eV
 BOTTOM OF VIRTUAL BANDS - BAND     59; K    1; EIG -4.7115116E-02 AU

    BETA       ELECTRONS
 INSULATING STATE
 TOP OF VALENCE BANDS -    BAND     58; K    4; EIG -1.6251113E-01 AU
 TOP OF VALENCE BANDS -    BAND     58; K    1; EIG -1.8309675E-01 AU
 BOTTOM OF VIRTUAL BANDS - BAND     59; K   16; EIG -5.4095183E-02 AU
 INDIRECT ENERGY BAND GAP:   2.9501 eV
 BOTTOM OF VIRTUAL BANDS - BAND     59; K    1; EIG -4.7115116E-02 AU
 TTTTTTTTTTTTTTTTTTTTTTTTTTTTTT PDIG        TELAPSE       31.46 TCPU       28.31
 TTTTTTTTTTTTTTTTTTTTTTTTTTTTTT MOQGAD      TELAPSE       31.46 TCPU       28.32
 TTTTTTTTTTTTTTTTTTTTTTTTTTTTTT SHELLXN     TELAPSE       36.35 TCPU       33.16
 TTTTTTTTTTTTTTTTTTTTTTTTTTTTTT MONMO3      TELAPSE       36.35 TCPU       33.16
 NUMERICALLY INTEGRATED DENSITY     58.0000036741     58.0000036741
 TTTTTTTTTTTTTTTTTTTTTTTTTTTTTT NUMDFT      TELAPSE       36.58 TCPU       33.39
 CYC   4 ETOT(AU) -4.119223189877E+03 DETOT -2.99E-03 tst  5.97E-04 PX  2.10E-02
 TTTTTTTTTTTTTTTTTTTTTTTTTTTTTT DIIS        TELAPSE       36.62 TCPU       33.43
 DIIS TEST: 0.24788E-01 AT SCF   CYCLE   4 - DIIS ACTIVE - HISTORY:     4 CYCLES
 TTTTTTTTTTTTTTTTTTTTTTTTTTTTTT FDIK        TELAPSE       36.65 TCPU       33.46

    ALPHA      ELECTRONS
 INSULATING STATE
 TOP OF VALENCE BANDS -    BAND     58; K    4; EIG -1.6282087E-01 AU
 TOP OF VALENCE BANDS -    BAND     58; K    1; EIG -1.8164494E-01 AU
 BOTTOM OF VIRTUAL BANDS - BAND     59; K   16; EIG -5.1985547E-02 AU
 INDIRECT ENERGY BAND GAP:   3.0160 eV
 BOTTOM OF VIRTUAL BANDS - BAND     59; K    1; EIG -4.5647625E-02 AU

    BETA       ELECTRONS
 INSULATING STATE
 TOP OF VALENCE BANDS -    BAND     58; K    4; EIG -1.6282087E-01 AU
 TOP OF VALENCE BANDS -    BAND     58; K    1; EIG -1.8164494E-01 AU
 BOTTOM OF VIRTUAL BANDS - BAND     59; K   16; EIG -5.1985547E-02 AU
 INDIRECT ENERGY BAND GAP:   3.0160 eV
 BOTTOM OF VIRTUAL BANDS - BAND     59; K    1; EIG -4.5647625E-02 AU
 TTTTTTTTTTTTTTTTTTTTTTTTTTTTTT PDIG        TELAPSE       36.72 TCPU       33.53
 TTTTTTTTTTTTTTTTTTTTTTTTTTTTTT MOQGAD      TELAPSE       36.72 TCPU       33.53
 TTTTTTTTTTTTTTTTTTTTTTTTTTTTTT SHELLXN     TELAPSE       41.60 TCPU       38.37
 TTTTTTTTTTTTTTTTTTTTTTTTTTTTTT MONMO3      TELAPSE       41.61 TCPU       38.38
 NUMERICALLY INTEGRATED DENSITY     58.0000036432     58.0000036432
 TTTTTTTTTTTTTTTTTTTTTTTTTTTTTT NUMDFT      TELAPSE       41.85 TCPU       38.61
 CYC   5 ETOT(AU) -4.119225835706E+03 DETOT -2.65E-03 tst  1.00E-04 PX  9.79E-03
 TTTTTTTTTTTTTTTTTTTTTTTTTTTTTT DIIS        TELAPSE       41.85 TCPU       38.62
 DIIS TEST: 0.87077E-04 AT SCF   CYCLE   5 - DIIS ACTIVE - HISTORY:     5 CYCLES
 TTTTTTTTTTTTTTTTTTTTTTTTTTTTTT FDIK        TELAPSE       41.89 TCPU       38.65

    ALPHA      ELECTRONS
 INSULATING STATE
 TOP OF VALENCE BANDS -    BAND     58; K    4; EIG -1.6282449E-01 AU
 TOP OF VALENCE BANDS -    BAND     58; K    1; EIG -1.8164353E-01 AU
 BOTTOM OF VIRTUAL BANDS - BAND     59; K   16; EIG -5.1226243E-02 AU
 INDIRECT ENERGY BAND GAP:   3.0367 eV
 BOTTOM OF VIRTUAL BANDS - BAND     59; K    1; EIG -4.4580003E-02 AU

    BETA       ELECTRONS
 INSULATING STATE
 TOP OF VALENCE BANDS -    BAND     58; K    4; EIG -1.6282449E-01 AU
 TOP OF VALENCE BANDS -    BAND     58; K    1; EIG -1.8164353E-01 AU
 BOTTOM OF VIRTUAL BANDS - BAND     59; K   16; EIG -5.1226243E-02 AU
 INDIRECT ENERGY BAND GAP:   3.0367 eV
 BOTTOM OF VIRTUAL BANDS - BAND     59; K    1; EIG -4.4580003E-02 AU
 TTTTTTTTTTTTTTTTTTTTTTTTTTTTTT PDIG        TELAPSE       41.93 TCPU       38.69
 TTTTTTTTTTTTTTTTTTTTTTTTTTTTTT MOQGAD      TELAPSE       41.93 TCPU       38.70
 TTTTTTTTTTTTTTTTTTTTTTTTTTTTTT SHELLXN     TELAPSE       46.81 TCPU       43.54
 TTTTTTTTTTTTTTTTTTTTTTTTTTTTTT MONMO3      TELAPSE       46.82 TCPU       43.54
 NUMERICALLY INTEGRATED DENSITY     58.0000036390     58.0000036390
 TTTTTTTTTTTTTTTTTTTTTTTTTTTTTT NUMDFT      TELAPSE       47.05 TCPU       43.77
 CYC   6 ETOT(AU) -4.119225902162E+03 DETOT -6.65E-05 tst  1.66E-05 PX  2.45E-03
 TTTTTTTTTTTTTTTTTTTTTTTTTTTTTT DIIS        TELAPSE       47.06 TCPU       43.78
 DIIS TEST: 0.53354E-05 AT SCF   CYCLE   6 - DIIS ACTIVE - HISTORY:     6 CYCLES
 TTTTTTTTTTTTTTTTTTTTTTTTTTTTTT FDIK        TELAPSE       47.09 TCPU       43.81

    ALPHA      ELECTRONS
 INSULATING STATE
 TOP OF VALENCE BANDS -    BAND     58; K    4; EIG -1.6272538E-01 AU
 TOP OF VALENCE BANDS -    BAND     58; K    1; EIG -1.8154905E-01 AU
 BOTTOM OF VIRTUAL BANDS - BAND     59; K   16; EIG -5.1052337E-02 AU
 INDIRECT ENERGY BAND GAP:   3.0388 eV
 BOTTOM OF VIRTUAL BANDS - BAND     59; K    1; EIG -4.4356212E-02 AU

    BETA       ELECTRONS
 INSULATING STATE
 TOP OF VALENCE BANDS -    BAND     58; K    4; EIG -1.6272538E-01 AU
 TOP OF VALENCE BANDS -    BAND     58; K    1; EIG -1.8154905E-01 AU
 BOTTOM OF VIRTUAL BANDS - BAND     59; K   16; EIG -5.1052337E-02 AU
 INDIRECT ENERGY BAND GAP:   3.0388 eV
 BOTTOM OF VIRTUAL BANDS - BAND     59; K    1; EIG -4.4356212E-02 AU
 TTTTTTTTTTTTTTTTTTTTTTTTTTTTTT PDIG        TELAPSE       47.14 TCPU       43.86
 TTTTTTTTTTTTTTTTTTTTTTTTTTTTTT MOQGAD      TELAPSE       47.14 TCPU       43.86
 TTTTTTTTTTTTTTTTTTTTTTTTTTTTTT SHELLXN     TELAPSE       52.01 TCPU       48.69
 TTTTTTTTTTTTTTTTTTTTTTTTTTTTTT MONMO3      TELAPSE       52.02 TCPU       48.70
 NUMERICALLY INTEGRATED DENSITY     58.0000036388     58.0000036388
 TTTTTTTTTTTTTTTTTTTTTTTTTTTTTT NUMDFT      TELAPSE       52.25 TCPU       48.93
 CYC   7 ETOT(AU) -4.119225901033E+03 DETOT  1.13E-06 tst  3.21E-07 PX  4.11E-04
 TTTTTTTTTTTTTTTTTTTTTTTTTTTTTT DIIS        TELAPSE       52.26 TCPU       48.94
 DIIS TEST: 0.26261E-05 AT SCF   CYCLE   7 - DIIS ACTIVE - HISTORY:     7 CYCLES
 TTTTTTTTTTTTTTTTTTTTTTTTTTTTTT FDIK        TELAPSE       52.29 TCPU       48.97

    ALPHA      ELECTRONS
 INSULATING STATE
 TOP OF VALENCE BANDS -    BAND     58; K    4; EIG -1.6274168E-01 AU
 TOP OF VALENCE BANDS -    BAND     58; K    1; EIG -1.8148364E-01 AU
 BOTTOM OF VIRTUAL BANDS - BAND     59; K   16; EIG -5.1072471E-02 AU
 INDIRECT ENERGY BAND GAP:   3.0387 eV
 BOTTOM OF VIRTUAL BANDS - BAND     59; K    1; EIG -4.4385612E-02 AU

    BETA       ELECTRONS
 INSULATING STATE
 TOP OF VALENCE BANDS -    BAND     58; K    4; EIG -1.6274168E-01 AU
 TOP OF VALENCE BANDS -    BAND     58; K    1; EIG -1.8148364E-01 AU
 BOTTOM OF VIRTUAL BANDS - BAND     59; K   16; EIG -5.1072471E-02 AU
 INDIRECT ENERGY BAND GAP:   3.0387 eV
 BOTTOM OF VIRTUAL BANDS - BAND     59; K    1; EIG -4.4385612E-02 AU
 TTTTTTTTTTTTTTTTTTTTTTTTTTTTTT PDIG        TELAPSE       52.34 TCPU       49.01
 TTTTTTTTTTTTTTTTTTTTTTTTTTTTTT MOQGAD      TELAPSE       52.34 TCPU       49.01
 TTTTTTTTTTTTTTTTTTTTTTTTTTTTTT SHELLXN     TELAPSE       57.24 TCPU       53.88
 TTTTTTTTTTTTTTTTTTTTTTTTTTTTTT MONMO3      TELAPSE       57.25 TCPU       53.88
 NUMERICALLY INTEGRATED DENSITY     58.0000036389     58.0000036389
 TTTTTTTTTTTTTTTTTTTTTTTTTTTTTT NUMDFT      TELAPSE       57.48 TCPU       54.11
 CYC   8 ETOT(AU) -4.119225900933E+03 DETOT  1.00E-07 tst  2.29E-08 PX  1.68E-04
 TTTTTTTTTTTTTTTTTTTTTTTTTTTTTT DIIS        TELAPSE       57.49 TCPU       54.12
 DIIS TEST: 0.70265E-07 AT SCF   CYCLE   8 - DIIS ACTIVE - HISTORY:     8 CYCLES
 TTTTTTTTTTTTTTTTTTTTTTTTTTTTTT FDIK        TELAPSE       57.52 TCPU       54.15

    ALPHA      ELECTRONS
 INSULATING STATE
 TOP OF VALENCE BANDS -    BAND     58; K    4; EIG -1.6274220E-01 AU
 TOP OF VALENCE BANDS -    BAND     58; K    1; EIG -1.8144848E-01 AU
 BOTTOM OF VIRTUAL BANDS - BAND     59; K   16; EIG -5.1069963E-02 AU
 INDIRECT ENERGY BAND GAP:   3.0388 eV
 BOTTOM OF VIRTUAL BANDS - BAND     59; K    1; EIG -4.4377242E-02 AU

    BETA       ELECTRONS
 INSULATING STATE
 TOP OF VALENCE BANDS -    BAND     58; K    4; EIG -1.6274220E-01 AU
 TOP OF VALENCE BANDS -    BAND     58; K    1; EIG -1.8144848E-01 AU
 BOTTOM OF VIRTUAL BANDS - BAND     59; K   16; EIG -5.1069963E-02 AU
 INDIRECT ENERGY BAND GAP:   3.0388 eV
 BOTTOM OF VIRTUAL BANDS - BAND     59; K    1; EIG -4.4377242E-02 AU
 TTTTTTTTTTTTTTTTTTTTTTTTTTTTTT PDIG        TELAPSE       57.57 TCPU       54.20
 TTTTTTTTTTTTTTTTTTTTTTTTTTTTTT MOQGAD      TELAPSE       57.57 TCPU       54.20
 TTTTTTTTTTTTTTTTTTTTTTTTTTTTTT SHELLXN     TELAPSE       62.45 TCPU       59.04
 TTTTTTTTTTTTTTTTTTTTTTTTTTTTTT MONMO3      TELAPSE       62.46 TCPU       59.05
 NUMERICALLY INTEGRATED DENSITY     58.0000036389     58.0000036389
 TTTTTTTTTTTTTTTTTTTTTTTTTTTTTT NUMDFT      TELAPSE       62.69 TCPU       59.27
 CYC   9 ETOT(AU) -4.119225900498E+03 DETOT  4.35E-07 tst  1.62E-08 PX  1.37E-04
 TTTTTTTTTTTTTTTTTTTTTTTTTTTTTT DIIS        TELAPSE       62.69 TCPU       59.28
 DIIS TEST: 0.38733E-07 AT SCF   CYCLE   9 - DIIS ACTIVE - HISTORY:     9 CYCLES
 TTTTTTTTTTTTTTTTTTTTTTTTTTTTTT FDIK        TELAPSE       62.73 TCPU       59.31

    ALPHA      ELECTRONS
 INSULATING STATE
 TOP OF VALENCE BANDS -    BAND     58; K    4; EIG -1.6274559E-01 AU
 TOP OF VALENCE BANDS -    BAND     58; K    1; EIG -1.8143748E-01 AU
 BOTTOM OF VIRTUAL BANDS - BAND     59; K   16; EIG -5.1076680E-02 AU
 INDIRECT ENERGY BAND GAP:   3.0387 eV
 BOTTOM OF VIRTUAL BANDS - BAND     59; K    1; EIG -4.4378784E-02 AU

    BETA       ELECTRONS
 INSULATING STATE
 TOP OF VALENCE BANDS -    BAND     58; K    4; EIG -1.6274559E-01 AU
 TOP OF VALENCE BANDS -    BAND     58; K    1; EIG -1.8143748E-01 AU
 BOTTOM OF VIRTUAL BANDS - BAND     59; K   16; EIG -5.1076680E-02 AU
 INDIRECT ENERGY BAND GAP:   3.0387 eV
 BOTTOM OF VIRTUAL BANDS - BAND     59; K    1; EIG -4.4378784E-02 AU
 TTTTTTTTTTTTTTTTTTTTTTTTTTTTTT PDIG        TELAPSE       62.77 TCPU       59.35
 TTTTTTTTTTTTTTTTTTTTTTTTTTTTTT MOQGAD      TELAPSE       62.77 TCPU       59.36
 TTTTTTTTTTTTTTTTTTTTTTTTTTTTTT SHELLXN     TELAPSE       67.65 TCPU       64.19
 TTTTTTTTTTTTTTTTTTTTTTTTTTTTTT MONMO3      TELAPSE       67.65 TCPU       64.20
 NUMERICALLY INTEGRATED DENSITY     58.0000036389     58.0000036389
 TTTTTTTTTTTTTTTTTTTTTTTTTTTTTT NUMDFT      TELAPSE       67.89 TCPU       64.43
 CYC  10 ETOT(AU) -4.119225900414E+03 DETOT  8.46E-08 tst  2.64E-09 PX  7.02E-05
 TTTTTTTTTTTTTTTTTTTTTTTTTTTTTT DIIS        TELAPSE       67.89 TCPU       64.44
 DIIS TEST: 0.97955E-09 AT SCF   CYCLE  10 - DIIS ACTIVE - HISTORY:    10 CYCLES
 TTTTTTTTTTTTTTTTTTTTTTTTTTTTTT FDIK        TELAPSE       67.93 TCPU       64.47

    ALPHA      ELECTRONS
 INSULATING STATE
 TOP OF VALENCE BANDS -    BAND     58; K    4; EIG -1.6274571E-01 AU
 TOP OF VALENCE BANDS -    BAND     58; K    1; EIG -1.8143143E-01 AU
 BOTTOM OF VIRTUAL BANDS - BAND     59; K   16; EIG -5.1079218E-02 AU
 INDIRECT ENERGY BAND GAP:   3.0386 eV
 BOTTOM OF VIRTUAL BANDS - BAND     59; K    1; EIG -4.4379842E-02 AU

    BETA       ELECTRONS
 INSULATING STATE
 TOP OF VALENCE BANDS -    BAND     58; K    4; EIG -1.6274571E-01 AU
 TOP OF VALENCE BANDS -    BAND     58; K    1; EIG -1.8143143E-01 AU
 BOTTOM OF VIRTUAL BANDS - BAND     59; K   16; EIG -5.1079218E-02 AU
 INDIRECT ENERGY BAND GAP:   3.0386 eV
 BOTTOM OF VIRTUAL BANDS - BAND     59; K    1; EIG -4.4379842E-02 AU
 TTTTTTTTTTTTTTTTTTTTTTTTTTTTTT PDIG        TELAPSE       67.97 TCPU       64.51
 TTTTTTTTTTTTTTTTTTTTTTTTTTTTTT MOQGAD      TELAPSE       67.97 TCPU       64.51
 TTTTTTTTTTTTTTTTTTTTTTTTTTTTTT SHELLXN     TELAPSE       72.84 TCPU       69.35
 TTTTTTTTTTTTTTTTTTTTTTTTTTTTTT MONMO3      TELAPSE       72.85 TCPU       69.35
 NUMERICALLY INTEGRATED DENSITY     58.0000036389     58.0000036389
 TTTTTTTTTTTTTTTTTTTTTTTTTTTTTT NUMDFT      TELAPSE       73.08 TCPU       69.58
 CYC  11 ETOT(AU) -4.119225900366E+03 DETOT  4.76E-08 tst  3.55E-10 PX  2.29E-05
 TTTTTTTTTTTTTTTTTTTTTTTTTTTTTT DIIS        TELAPSE       73.09 TCPU       69.59
 DIIS TEST: 0.54007E-10 AT SCF   CYCLE  11 - DIIS ACTIVE - HISTORY:    11 CYCLES
 TTTTTTTTTTTTTTTTTTTTTTTTTTTTTT FDIK        TELAPSE       73.12 TCPU       69.62

    ALPHA      ELECTRONS
 INSULATING STATE
 TOP OF VALENCE BANDS -    BAND     58; K    4; EIG -1.6274553E-01 AU
 TOP OF VALENCE BANDS -    BAND     58; K    1; EIG -1.8143067E-01 AU
 BOTTOM OF VIRTUAL BANDS - BAND     59; K   16; EIG -5.1079553E-02 AU
 INDIRECT ENERGY BAND GAP:   3.0386 eV
 BOTTOM OF VIRTUAL BANDS - BAND     59; K    1; EIG -4.4379660E-02 AU

    BETA       ELECTRONS
 INSULATING STATE
 TOP OF VALENCE BANDS -    BAND     58; K    4; EIG -1.6274553E-01 AU
 TOP OF VALENCE BANDS -    BAND     58; K    1; EIG -1.8143067E-01 AU
 BOTTOM OF VIRTUAL BANDS - BAND     59; K   16; EIG -5.1079553E-02 AU
 INDIRECT ENERGY BAND GAP:   3.0386 eV
 BOTTOM OF VIRTUAL BANDS - BAND     59; K    1; EIG -4.4379660E-02 AU
 TTTTTTTTTTTTTTTTTTTTTTTTTTTTTT PDIG        TELAPSE       73.17 TCPU       69.67
 TTTTTTTTTTTTTTTTTTTTTTTTTTTTTT MOQGAD      TELAPSE       73.17 TCPU       69.67
 TTTTTTTTTTTTTTTTTTTTTTTTTTTTTT SHELLXN     TELAPSE       78.05 TCPU       74.52
 TTTTTTTTTTTTTTTTTTTTTTTTTTTTTT MONMO3      TELAPSE       78.05 TCPU       74.52
 NUMERICALLY INTEGRATED DENSITY     58.0000036389     58.0000036389
 TTTTTTTTTTTTTTTTTTTTTTTTTTTTTT NUMDFT      TELAPSE       78.29 TCPU       74.75
 CYC  12 ETOT(AU) -4.119225900359E+03 DETOT  6.89E-09 tst  2.13E-11 PX  4.85E-06
 TTTTTTTTTTTTTTTTTTTTTTTTTTTTTT DIIS        TELAPSE       78.29 TCPU       74.76
 DIIS TEST: 0.52636E-11 AT SCF   CYCLE  12 - DIIS ACTIVE - HISTORY:    12 CYCLES
 TTTTTTTTTTTTTTTTTTTTTTTTTTTTTT FDIK        TELAPSE       78.33 TCPU       74.79

    ALPHA      ELECTRONS
 INSULATING STATE
 TOP OF VALENCE BANDS -    BAND     58; K    4; EIG -1.6274541E-01 AU
 TOP OF VALENCE BANDS -    BAND     58; K    1; EIG -1.8143072E-01 AU
 BOTTOM OF VIRTUAL BANDS - BAND     59; K   16; EIG -5.1079612E-02 AU
 INDIRECT ENERGY BAND GAP:   3.0386 eV
 BOTTOM OF VIRTUAL BANDS - BAND     59; K    1; EIG -4.4379652E-02 AU

    BETA       ELECTRONS
 INSULATING STATE
 TOP OF VALENCE BANDS -    BAND     58; K    4; EIG -1.6274541E-01 AU
 TOP OF VALENCE BANDS -    BAND     58; K    1; EIG -1.8143072E-01 AU
 BOTTOM OF VIRTUAL BANDS - BAND     59; K   16; EIG -5.1079612E-02 AU
 INDIRECT ENERGY BAND GAP:   3.0386 eV
 BOTTOM OF VIRTUAL BANDS - BAND     59; K    1; EIG -4.4379652E-02 AU
 TTTTTTTTTTTTTTTTTTTTTTTTTTTTTT PDIG        TELAPSE       78.38 TCPU       74.84
 TTTTTTTTTTTTTTTTTTTTTTTTTTTTTT MOQGAD      TELAPSE       78.38 TCPU       74.84
 TTTTTTTTTTTTTTTTTTTTTTTTTTTTTT SHELLXN     TELAPSE       83.25 TCPU       79.68
 TTTTTTTTTTTTTTTTTTTTTTTTTTTTTT MONMO3      TELAPSE       83.26 TCPU       79.68
 NUMERICALLY INTEGRATED DENSITY     58.0000036389     58.0000036389
 TTTTTTTTTTTTTTTTTTTTTTTTTTTTTT NUMDFT      TELAPSE       83.49 TCPU       79.91
 CYC  13 ETOT(AU) -4.119225900360E+03 DETOT -1.01E-09 tst  6.10E-13 PX  6.24E-07
 TTTTTTTTTTTTTTTTTTTTTTTTTTTTTT DIIS        TELAPSE       83.49 TCPU       79.92
 DIIS TEST: 0.38372E-12 AT SCF   CYCLE  13 - DIIS ACTIVE - HISTORY:    13 CYCLES
 TTTTTTTTTTTTTTTTTTTTTTTTTTTTTT FDIK        TELAPSE       83.53 TCPU       79.95

    ALPHA      ELECTRONS
 INSULATING STATE
 TOP OF VALENCE BANDS -    BAND     58; K    4; EIG -1.6274538E-01 AU
 TOP OF VALENCE BANDS -    BAND     58; K    1; EIG -1.8143074E-01 AU
 BOTTOM OF VIRTUAL BANDS - BAND     59; K   16; EIG -5.1079638E-02 AU
 INDIRECT ENERGY BAND GAP:   3.0386 eV
 BOTTOM OF VIRTUAL BANDS - BAND     59; K    1; EIG -4.4379662E-02 AU

    BETA       ELECTRONS
 INSULATING STATE
 TOP OF VALENCE BANDS -    BAND     58; K    4; EIG -1.6274538E-01 AU
 TOP OF VALENCE BANDS -    BAND     58; K    1; EIG -1.8143074E-01 AU
 BOTTOM OF VIRTUAL BANDS - BAND     59; K   16; EIG -5.1079638E-02 AU
 INDIRECT ENERGY BAND GAP:   3.0386 eV
 BOTTOM OF VIRTUAL BANDS - BAND     59; K    1; EIG -4.4379662E-02 AU
 TTTTTTTTTTTTTTTTTTTTTTTTTTTTTT PDIG        TELAPSE       83.57 TCPU       79.99
 TTTTTTTTTTTTTTTTTTTTTTTTTTTTTT MOQGAD      TELAPSE       83.57 TCPU       79.99
 TTTTTTTTTTTTTTTTTTTTTTTTTTTTTT SHELLXN     TELAPSE       88.45 TCPU       84.83
 TTTTTTTTTTTTTTTTTTTTTTTTTTTTTT MONMO3      TELAPSE       88.46 TCPU       84.83
 NUMERICALLY INTEGRATED DENSITY     58.0000036389     58.0000036389
 TTTTTTTTTTTTTTTTTTTTTTTTTTTTTT NUMDFT      TELAPSE       88.69 TCPU       85.06
 CYC  14 ETOT(AU) -4.119225900361E+03 DETOT -3.90E-10 tst  7.81E-14 PX  2.56E-07
 TTTTTTTTTTTTTTTTTTTTTTTTTTTTTT DIIS        TELAPSE       88.69 TCPU       85.07
 DIIS TEST: 0.12133E-12 AT SCF   CYCLE  14 - DIIS ACTIVE - HISTORY:    14 CYCLES
 TTTTTTTTTTTTTTTTTTTTTTTTTTTTTT FDIK        TELAPSE       88.73 TCPU       85.10

    ALPHA      ELECTRONS
 INSULATING STATE
 TOP OF VALENCE BANDS -    BAND     58; K    4; EIG -1.6274538E-01 AU
 TOP OF VALENCE BANDS -    BAND     58; K    1; EIG -1.8143075E-01 AU
 BOTTOM OF VIRTUAL BANDS - BAND     59; K   16; EIG -5.1079647E-02 AU
 INDIRECT ENERGY BAND GAP:   3.0386 eV
 BOTTOM OF VIRTUAL BANDS - BAND     59; K    1; EIG -4.4379664E-02 AU

    BETA       ELECTRONS
 INSULATING STATE
 TOP OF VALENCE BANDS -    BAND     58; K    4; EIG -1.6274538E-01 AU
 TOP OF VALENCE BANDS -    BAND     58; K    1; EIG -1.8143075E-01 AU
 BOTTOM OF VIRTUAL BANDS - BAND     59; K   16; EIG -5.1079647E-02 AU
 INDIRECT ENERGY BAND GAP:   3.0386 eV
 BOTTOM OF VIRTUAL BANDS - BAND     59; K    1; EIG -4.4379664E-02 AU
 TTTTTTTTTTTTTTTTTTTTTTTTTTTTTT PDIG        TELAPSE       88.77 TCPU       85.15
 TTTTTTTTTTTTTTTTTTTTTTTTTTTTTT MOQGAD      TELAPSE       88.77 TCPU       85.15
 TTTTTTTTTTTTTTTTTTTTTTTTTTTTTT SHELLXN     TELAPSE       93.65 TCPU       89.99
 TTTTTTTTTTTTTTTTTTTTTTTTTTTTTT MONMO3      TELAPSE       93.66 TCPU       89.99
 NUMERICALLY INTEGRATED DENSITY     58.0000036389     58.0000036389
 TTTTTTTTTTTTTTTTTTTTTTTTTTTTTT NUMDFT      TELAPSE       93.90 TCPU       90.23
 CYC  15 ETOT(AU) -4.119225900361E+03 DETOT -3.82E-11 tst  3.49E-15 PX  5.43E-08
 TTTTTTTTTTTTTTTTTTTTTTTTTTTTTT DIIS        TELAPSE       93.90 TCPU       90.23
 DIIS TEST: 0.42120E-15 AT SCF   CYCLE  15 - DIIS ACTIVE - HISTORY:    15 CYCLES
 TTTTTTTTTTTTTTTTTTTTTTTTTTTTTT FDIK        TELAPSE       93.94 TCPU       90.26

    ALPHA      ELECTRONS
 INSULATING STATE
 TOP OF VALENCE BANDS -    BAND     58; K    4; EIG -1.6274538E-01 AU
 TOP OF VALENCE BANDS -    BAND     58; K    1; EIG -1.8143075E-01 AU
 BOTTOM OF VIRTUAL BANDS - BAND     59; K   16; EIG -5.1079646E-02 AU
 INDIRECT ENERGY BAND GAP:   3.0386 eV
 BOTTOM OF VIRTUAL BANDS - BAND     59; K    1; EIG -4.4379664E-02 AU

    BETA       ELECTRONS
 INSULATING STATE
 TOP OF VALENCE BANDS -    BAND     58; K    4; EIG -1.6274538E-01 AU
 TOP OF VALENCE BANDS -    BAND     58; K    1; EIG -1.8143075E-01 AU
 BOTTOM OF VIRTUAL BANDS - BAND     59; K   16; EIG -5.1079646E-02 AU
 INDIRECT ENERGY BAND GAP:   3.0386 eV
 BOTTOM OF VIRTUAL BANDS - BAND     59; K    1; EIG -4.4379664E-02 AU
 TTTTTTTTTTTTTTTTTTTTTTTTTTTTTT PDIG        TELAPSE       93.98 TCPU       90.31
 TTTTTTTTTTTTTTTTTTTTTTTTTTTTTT MOQGAD      TELAPSE       93.98 TCPU       90.31
 TTTTTTTTTTTTTTTTTTTTTTTTTTTTTT SHELLXN     TELAPSE       98.87 TCPU       95.16
 TTTTTTTTTTTTTTTTTTTTTTTTTTTTTT MONMO3      TELAPSE       98.87 TCPU       95.16
 NUMERICALLY INTEGRATED DENSITY     58.0000036389     58.0000036389
 TTTTTTTTTTTTTTTTTTTTTTTTTTTTTT NUMDFT      TELAPSE       99.11 TCPU       95.40
 CYC  16 ETOT(AU) -4.119225900361E+03 DETOT -1.36E-11 tst  4.24E-18 PX  2.17E-09
 TTTTTTTTTTTTTTTTTTTTTTTTTTTTTT DIIS        TELAPSE       99.11 TCPU       95.40
 DIIS TEST: 0.58145E-17 AT SCF   CYCLE  16 - DIIS ACTIVE - HISTORY:    14 CYCLES
 TTTTTTTTTTTTTTTTTTTTTTTTTTTTTT FDIK        TELAPSE       99.15 TCPU       95.43

    ALPHA      ELECTRONS
 INSULATING STATE
 TOP OF VALENCE BANDS -    BAND     58; K    4; EIG -1.6274538E-01 AU
 TOP OF VALENCE BANDS -    BAND     58; K    1; EIG -1.8143075E-01 AU
 BOTTOM OF VIRTUAL BANDS - BAND     59; K   16; EIG -5.1079646E-02 AU
 INDIRECT ENERGY BAND GAP:   3.0386 eV
 BOTTOM OF VIRTUAL BANDS - BAND     59; K    1; EIG -4.4379664E-02 AU

    BETA       ELECTRONS
 INSULATING STATE
 TOP OF VALENCE BANDS -    BAND     58; K    4; EIG -1.6274538E-01 AU
 TOP OF VALENCE BANDS -    BAND     58; K    1; EIG -1.8143075E-01 AU
 BOTTOM OF VIRTUAL BANDS - BAND     59; K   16; EIG -5.1079646E-02 AU
 INDIRECT ENERGY BAND GAP:   3.0386 eV
 BOTTOM OF VIRTUAL BANDS - BAND     59; K    1; EIG -4.4379664E-02 AU
 TTTTTTTTTTTTTTTTTTTTTTTTTTTTTT PDIG        TELAPSE       99.19 TCPU       95.48
 TTTTTTTTTTTTTTTTTTTTTTTTTTTTTT MOQGAD      TELAPSE       99.20 TCPU       95.48
 TTTTTTTTTTTTTTTTTTTTTTTTTTTTTT SHELLXN     TELAPSE      104.08 TCPU      100.32
 TTTTTTTTTTTTTTTTTTTTTTTTTTTTTT MONMO3      TELAPSE      104.08 TCPU      100.32
 NUMERICALLY INTEGRATED DENSITY     58.0000036389     58.0000036389
 TTTTTTTTTTTTTTTTTTTTTTTTTTTTTT NUMDFT      TELAPSE      104.31 TCPU      100.55
 CYC  17 ETOT(AU) -4.119225900361E+03 DETOT  9.09E-13 tst  5.22E-20 PX  3.27E-10
 TTTTTTTTTTTTTTTTTTTTTTTTTTTTTT DIIS        TELAPSE      104.32 TCPU      100.55
 DIIS TEST: 0.18451E-18 AT SCF   CYCLE  17 - DIIS ACTIVE - HISTORY:    14 CYCLES
 TTTTTTTTTTTTTTTTTTTTTTTTTTTTTT FDIK        TELAPSE      104.35 TCPU      100.58

    ALPHA      ELECTRONS
 INSULATING STATE
 TOP OF VALENCE BANDS -    BAND     58; K    4; EIG -1.6274538E-01 AU
 TOP OF VALENCE BANDS -    BAND     58; K    1; EIG -1.8143075E-01 AU
 BOTTOM OF VIRTUAL BANDS - BAND     59; K   16; EIG -5.1079646E-02 AU
 INDIRECT ENERGY BAND GAP:   3.0386 eV
 BOTTOM OF VIRTUAL BANDS - BAND     59; K    1; EIG -4.4379664E-02 AU

    BETA       ELECTRONS
 INSULATING STATE
 TOP OF VALENCE BANDS -    BAND     58; K    4; EIG -1.6274538E-01 AU
 TOP OF VALENCE BANDS -    BAND     58; K    1; EIG -1.8143075E-01 AU
 BOTTOM OF VIRTUAL BANDS - BAND     59; K   16; EIG -5.1079646E-02 AU
 INDIRECT ENERGY BAND GAP:   3.0386 eV
 BOTTOM OF VIRTUAL BANDS - BAND     59; K    1; EIG -4.4379664E-02 AU
 TTTTTTTTTTTTTTTTTTTTTTTTTTTTTT PDIG        TELAPSE      104.40 TCPU      100.63
 TTTTTTTTTTTTTTTTTTTTTTTTTTTTTT MOQGAD      TELAPSE      104.40 TCPU      100.63
 TTTTTTTTTTTTTTTTTTTTTTTTTTTTTT SHELLXN     TELAPSE      109.27 TCPU      105.47
 ::: PSEUDO TOTAL   ENERGY                        -3.9579131834295E+03
 ::: VIRIAL COEFFICIENT                            1.0197765697934E+00
 TTTTTTTTTTTTTTTTTTTTTTTTTTTTTT MONMO3      TELAPSE      109.28 TCPU      105.47
 NUMERICALLY INTEGRATED DENSITY     58.0000036389     58.0000036389
 EXCHANGE ENERGY: -0.156291390564E+03  CORRELATION ENERGY: -0.502132636744E+01
 TTTTTTTTTTTTTTTTTTTTTTTTTTTTTT NUMDFT      TELAPSE      109.51 TCPU      105.70
 CYC  18 ETOT(AU) -4.119225900361E+03 DETOT  0.00E+00 tst  1.47E-20 PX  3.27E-10

 == SCF ENDED - CONVERGENCE ON ENERGY      E(AU) -4.1192259003606E+03 CYCLES  18


 ENERGY EXPRESSION=HARTREE+FOCK EXCH*0.25000+(PBE        EXCH)*0.75000+PBE        CORR


 TOTAL ENERGY(DFT)(AU)( 18) -4.1192259003606E+03 DE 0.0E+00 tester 1.5E-20
 TTTTTTTTTTTTTTTTTTTTTTTTTTTTTT EDFT        TELAPSE      109.52 TCPU      105.70

 *******************************************************************************
 *                             FORCE CALCULATION                               *
 *******************************************************************************

 TTTTTTTTTTTTTTTTTTTTTTTTTTTTTT NUMDFG      TELAPSE      109.94 TCPU      106.12
 INFORMATION **** EXCPOG **** EXCH. BIPO BUFFER LENGTH (WORDS) =     4591296
 INFORMATION **** GENPOG **** BIPO BUFFER LENGTH (WORDS) =     1078000
 TTTTTTTTTTTTTTTTTTTTTTTTTTTTTT SHELXG      TELAPSE      141.77 TCPU      137.75

 CARTESIAN FORCES IN HARTREE/BOHR (ANALYTICAL)
   ATOM                     X                   Y                   Z
   1  26            -7.105427357601E-15 -6.420706745862E-15 -1.358311258127E-14
   2  26            -1.199040866595E-14  3.262197012702E-14  1.279980089327E-14
   3  16            -1.114495316925E-02 -6.510643314946E-03 -7.866809705135E-15
   4  16             1.114495316928E-02  6.510643314953E-03 -5.550170262394E-15
   5  16            -1.114495316928E-02  6.510643314929E-03  7.090312440062E-15
   6  16             1.114495316927E-02 -6.510643314963E-03  7.109979215463E-15

 RESULTANT FORCE     2.220446049250E-15 -7.771561172376E-16 -1.577721810442E-30

 ATOMIC PART

 SYMMETRY ALLOWED FORCES (ANALYTICAL) (DIRECTION, FORCE)

    1 -2.2289906E-02    2 -1.3021287E-02

 CELL PART

 GRADIENT WITH RESPECT TO THE CELL PARAMETER IN HARTREE/BOHR
ORDER: -D/DA1X, -D/DA1Y, -D/DA1Z
       -D/DA2X, -D/DA2Y, -D/DA2Z
       -D/DA3X, -D/DA3Y, -D/DA3Z
  0.992047891167E-02  0.270297937224E-14  0.148546911342E-14
 -0.136743797601E-14  0.101948484998E-01  0.658034271705E-15
  0.323880269449E-14  0.118686861173E-14  0.205222277582E-01

STRESS TENSOR, IN HARTREE/BOHR^3:
ORDER: 11 12 13
       21 22 23
       31 32 33
 -0.151198390281E-03  0.254446095912E-16 -0.376305834607E-16
 -0.411962097479E-16 -0.189700699022E-03 -0.137898361103E-16
 -0.226400903384E-16 -0.122443762970E-16 -0.238441015801E-03

STRESS TENSOR DOES NOT CORRESPOND TO
HYDROSTATIC PRESSURE, NO PRESSURE COMPUTED!

 SYMMETRY ALLOWED FORCES (ANALYTICAL) (DIRECTION, FORCE)

    1  2.8419137E-02    2 -4.5290940E-03    3 -2.8274779E-03
 TTTTTTTTTTTTTTTTTTTTTTTTTTTTTT TOTGRA      TELAPSE      141.89 TCPU      137.86
 INFORMATION **** optc001 **** GEOMETRY OUTPUT FILE
 CLASSICAL MODEL (SCHLEGEL) USED AS INITIAL HESSIAN MATRIX
 REFERENCE GEOMETRY DEFINED

 MAX GRADIENT      0.028419  THRESHOLD              0.000045 CONVERGED NO
 RMS GRADIENT      0.017335  THRESHOLD              0.000030 CONVERGED NO

 GRADIENT NORM     0.038763  GRADIENT THRESHOLD     0.500000

 EIGENVALUES OF THE ESTIMATED HESSIAN
  0.3119E-01  0.8298E-01  0.1337      0.2429      0.3533    

 INITIAL TRUST RADIUS    0.5000000000E+00

 PREDICTED ENERGY CHANGE    -0.486E-02

 INITIAL DISPLACEMENTS
 -0.306604 -0.204638 -0.013726 -0.131244 -0.008095
 TTTTTTTTTTTTTTTTTTTTTTTTTTTTTT OPTI        TELAPSE      142.56 TCPU      138.48

 OPTOPTOPTOPTOPTOPTOPTOPTOPTOPTOPTOPTOPTOPTOPTOPTOPTOPTOPTOPTOPTOPTOPTOPTOPTOPT

 - INFORMATION ON SCF MOVED TO SCFOUT.LOG
 GEOMETRY OPTIMIZATION INFORMATION STORED IN OPTINFO.DAT

 OPTOPTOPTOPTOPTOPTOPTOPTOPTOPTOPTOPTOPTOPTOPTOPTOPTOPTOPTOPTOPTOPTOPTOPTOPTOPT
 *******************************************************************************
 COORDINATE AND CELL OPTIMIZATION - POINT    2
 *******************************************************************************
 LATTICE PARAMETERS (ANGSTROMS AND DEGREES) - BOHR = 0.5291772083 ANGSTROM
 PRIMITIVE CELL - CENTRING CODE 1/0 VOLUME=    81.317379 - DENSITY  4.896 g/cm^3
         A              B              C           ALPHA      BETA       GAMMA 
     4.36141820     5.45979308     3.41491152    90.000000  90.000000  90.000000
 *******************************************************************************
 ATOMS IN THE ASYMMETRIC UNIT    2 - ATOMS IN THE UNIT CELL:    6
     ATOM                 X/A                 Y/B                 Z/C    
 *******************************************************************************
      1 T  26 FE    5.000000000000E-01 -5.000000000000E-01  5.000000000000E-01
      2 F  26 FE    0.000000000000E+00 -2.218283926479E-16 -1.110223024625E-16
      3 T  16 S    -3.177384173057E-01  1.117484334195E-01  5.000000000000E-01
      4 F  16 S     3.177384173057E-01 -1.117484334195E-01  5.000000000000E-01
      5 F  16 S     1.822615826943E-01  3.882515665805E-01 -1.110223024625E-16
      6 F  16 S    -1.822615826943E-01 -3.882515665805E-01 -1.110223024625E-16

 T = ATOM BELONGING TO THE ASYMMETRIC UNIT

 TOTAL ENERGY(DFT)(AU)( 15) -4.1192142619403E+03     DE (AU)    1.164E-02

 UPDATED TRUST RADIUS     0.979E-01
 ENERGY CHANGE > 0: STEP REJECTED. RETRYING WITH A NEW STEP

 EIGENVALUES OF THE ESTIMATED HESSIAN
  0.3119E-01  0.8298E-01  0.1337      0.2429      0.3533    
 NEWTON STEP ( 0.3916146607E+00) EXCEEDS TRUST RADIUS ( 0.9790366517E-01)
 LEVEL SHIFT    -0.8282674536E-01

 PREDICTED ENERGY CHANGE    -0.273E-02

 MAX GRADIENT      0.028419  THRESHOLD              0.000045 CONVERGED NO
 RMS GRADIENT      0.017335  THRESHOLD              0.000030 CONVERGED NO
 MAX DISPLAC.      0.071386  THRESHOLD              0.000180 CONVERGED NO
 RMS DISPLAC.      0.043784  THRESHOLD              0.000120 CONVERGED NO
 TTTTTTTTTTTTTTTTTTTTTTTTTTTTTT OPTI        TELAPSE      227.83 TCPU      222.95
 *******************************************************************************
 COORDINATE AND CELL OPTIMIZATION - POINT    3
 *******************************************************************************
 LATTICE PARAMETERS (ANGSTROMS AND DEGREES) - BOHR = 0.5291772083 ANGSTROM
 PRIMITIVE CELL - CENTRING CODE 1/0 VOLUME=    82.476354 - DENSITY  4.827 g/cm^3
         A              B              C           ALPHA      BETA       GAMMA 
     4.44574149     5.44787146     3.40532365    90.000000  90.000000  90.000000
 *******************************************************************************
 ATOMS IN THE ASYMMETRIC UNIT    2 - ATOMS IN THE UNIT CELL:    6
     ATOM                 X/A                 Y/B                 Z/C    
 *******************************************************************************
      1 T  26 FE   -5.000000000000E-01 -5.000000000000E-01 -5.000000000000E-01
      2 F  26 FE    0.000000000000E+00 -2.219916519514E-16 -1.110223024625E-16
      3 T  16 S    -3.037310954259E-01  1.192853949165E-01 -5.000000000000E-01
      4 F  16 S     3.037310954259E-01 -1.192853949165E-01 -5.000000000000E-01
      5 F  16 S     1.962689045741E-01  3.807146050835E-01 -1.110223024625E-16
      6 F  16 S    -1.962689045741E-01 -3.807146050835E-01 -1.110223024625E-16

 T = ATOM BELONGING TO THE ASYMMETRIC UNIT

 ENERGY DIFFERENCE WITH RESPECT TO FIRST CALCULATION USING
 THE PRESENT REFERENCE GEOMETRY:  1.163842034202E-02

 REFERENCE GEOMETRY WILL BE CHANGED

 TOTAL ENERGY(DFT)(AU)( 17) -4.1192284074164E+03     DE (AU)   -2.507E-03

 SYMMETRY ALLOWED FORCES  (COORDINATE, FORCE)

    1 -7.0042096E-03    2 -3.8446587E-03    3  2.4138036E-02    4  2.5968873E-04
    5 -6.1070413E-04

 GRADIENT NORM     0.025435  GRADIENT THRESHOLD     0.500000

 HESSIAN UPDATE SKIPPED

 EIGENVALUES OF THE ESTIMATED HESSIAN
  0.3119E-01  0.8298E-01  0.1337      0.2429      0.3533    
 NEWTON STEP ( 0.1511988507E+00) EXCEEDS TRUST RADIUS ( 0.9790366517E-01)
 LEVEL SHIFT    -0.3993196903E-02

 PREDICTED ENERGY CHANGE    -0.133E-02

 MAX GRADIENT      0.024138  THRESHOLD              0.000045 CONVERGED NO
 RMS GRADIENT      0.011375  THRESHOLD              0.000030 CONVERGED NO
 MAX DISPLAC.      0.090207  THRESHOLD              0.000180 CONVERGED NO
 RMS DISPLAC.      0.043784  THRESHOLD              0.000120 CONVERGED NO
 TTTTTTTTTTTTTTTTTTTTTTTTTTTTTT OPTI        TELAPSE      355.22 TCPU      349.18
 *******************************************************************************
 COORDINATE AND CELL OPTIMIZATION - POINT    4
 *******************************************************************************
 LATTICE PARAMETERS (ANGSTROMS AND DEGREES) - BOHR = 0.5291772083 ANGSTROM
 PRIMITIVE CELL - CENTRING CODE 1/0 VOLUME=    84.478888 - DENSITY  4.713 g/cm^3
         A              B              C           ALPHA      BETA       GAMMA 
     4.49870576     5.48011843     3.42665715    90.000000  90.000000  90.000000
 *******************************************************************************
 ATOMS IN THE ASYMMETRIC UNIT    2 - ATOMS IN THE UNIT CELL:    6
     ATOM                 X/A                 Y/B                 Z/C    
 *******************************************************************************
      1 T  26 FE    5.000000000000E-01  5.000000000000E-01  5.000000000000E-01
      2 F  26 FE    0.000000000000E+00 -2.219985203454E-16 -1.110223024625E-16
      3 T  16 S    -3.023706760746E-01  1.196024783542E-01  5.000000000000E-01
      4 F  16 S     3.023706760746E-01 -1.196024783542E-01  5.000000000000E-01
      5 F  16 S     1.976293239254E-01  3.803975216458E-01 -1.110223024625E-16
      6 F  16 S    -1.976293239254E-01 -3.803975216458E-01 -1.110223024625E-16

 T = ATOM BELONGING TO THE ASYMMETRIC UNIT

 TOTAL ENERGY(DFT)(AU)( 15) -4.1192292986153E+03     DE (AU)   -8.912E-04

 UPDATED TRUST RADIUS     0.979E-01

 SYMMETRY ALLOWED FORCES  (COORDINATE, FORCE)

    1 -1.5294586E-02    2 -8.3790918E-03    3  5.0351298E-03    4 -5.1525808E-03
    5 -1.6915097E-03

 GRADIENT NORM     0.018945  GRADIENT THRESHOLD     0.500000

 EIGENVALUES OF THE ESTIMATED HESSIAN
  0.5106E-01  0.8213E-01  0.1342      0.2343      0.3505    
 NEWTON STEP ( 0.3516052588E+00) EXCEEDS TRUST RADIUS ( 0.9790366517E-01)
 LEVEL SHIFT    -0.1313332117E+00

 PREDICTED ENERGY CHANGE    -0.156E-02

 MAX GRADIENT      0.015295  THRESHOLD              0.000045 CONVERGED NO
 RMS GRADIENT      0.008472  THRESHOLD              0.000030 CONVERGED NO
 MAX DISPLAC.      0.072380  THRESHOLD              0.000180 CONVERGED NO
 RMS DISPLAC.      0.043784  THRESHOLD              0.000120 CONVERGED NO
 TTTTTTTTTTTTTTTTTTTTTTTTTTTTTT OPTI        TELAPSE      471.97 TCPU      464.93
 *******************************************************************************
 COORDINATE AND CELL OPTIMIZATION - POINT    5
 *******************************************************************************
 LATTICE PARAMETERS (ANGSTROMS AND DEGREES) - BOHR = 0.5291772083 ANGSTROM
 PRIMITIVE CELL - CENTRING CODE 1/0 VOLUME=    85.359001 - DENSITY  4.664 g/cm^3
         A              B              C           ALPHA      BETA       GAMMA 
     4.49992331     5.50572815     3.44531905    90.000000  90.000000  90.000000
 *******************************************************************************
 ATOMS IN THE ASYMMETRIC UNIT    2 - ATOMS IN THE UNIT CELL:    6
     ATOM                 X/A                 Y/B                 Z/C    
 *******************************************************************************
      1 T  26 FE   -5.000000000000E-01 -5.000000000000E-01 -5.000000000000E-01
      2 F  26 FE    0.000000000000E+00 -2.219486951008E-16 -1.110223024625E-16
      3 T  16 S    -3.066809410408E-01  1.173022667157E-01 -5.000000000000E-01
      4 F  16 S     3.066809410408E-01 -1.173022667157E-01 -5.000000000000E-01
      5 F  16 S     1.933190589592E-01  3.826977332843E-01 -1.110223024625E-16
      6 F  16 S    -1.933190589592E-01 -3.826977332843E-01 -1.110223024625E-16

 T = ATOM BELONGING TO THE ASYMMETRIC UNIT

 TOTAL ENERGY(DFT)(AU)( 15) -4.1192302575817E+03     DE (AU)   -9.590E-04

 UPDATED TRUST RADIUS     0.979E-01

 SYMMETRY ALLOWED FORCES  (COORDINATE, FORCE)

    1  1.2469173E-03    2  4.8774344E-04    3  1.7449408E-03    4  1.5892146E-05
    5  6.1897823E-04

 GRADIENT NORM     0.002285  GRADIENT THRESHOLD     0.500000

 EIGENVALUES OF THE ESTIMATED HESSIAN
  0.8158E-01  0.1331      0.1612      0.2618      0.3516    

 PREDICTED ENERGY CHANGE    -0.111E-04

 MAX GRADIENT      0.001745  THRESHOLD              0.000045 CONVERGED NO
 RMS GRADIENT      0.001022  THRESHOLD              0.000030 CONVERGED NO
 MAX DISPLAC.      0.008376  THRESHOLD              0.000180 CONVERGED NO
 RMS DISPLAC.      0.004711  THRESHOLD              0.000120 CONVERGED NO
 TTTTTTTTTTTTTTTTTTTTTTTTTTTTTT OPTI        TELAPSE      588.72 TCPU      580.68
 *******************************************************************************
 COORDINATE AND CELL OPTIMIZATION - POINT    6
 *******************************************************************************
 LATTICE PARAMETERS (ANGSTROMS AND DEGREES) - BOHR = 0.5291772083 ANGSTROM
 PRIMITIVE CELL - CENTRING CODE 1/0 VOLUME=    85.550109 - DENSITY  4.654 g/cm^3
         A              B              C           ALPHA      BETA       GAMMA 
     4.50175408     5.51288033     3.44715042    90.000000  90.000000  90.000000
 *******************************************************************************
 ATOMS IN THE ASYMMETRIC UNIT    2 - ATOMS IN THE UNIT CELL:    6
     ATOM                 X/A                 Y/B                 Z/C    
 *******************************************************************************
      1 T  26 FE   -5.000000000000E-01  5.000000000000E-01 -5.000000000000E-01
      2 F  26 FE    0.000000000000E+00 -2.219522795082E-16 -1.110223024625E-16
      3 T  16 S    -3.064991403819E-01  1.174677429846E-01 -5.000000000000E-01
      4 F  16 S     3.064991403819E-01 -1.174677429846E-01 -5.000000000000E-01
      5 F  16 S     1.935008596181E-01  3.825322570154E-01 -1.110223024625E-16
      6 F  16 S    -1.935008596181E-01 -3.825322570154E-01 -1.110223024625E-16

 T = ATOM BELONGING TO THE ASYMMETRIC UNIT

 TOTAL ENERGY(DFT)(AU)( 13) -4.1192302652873E+03     DE (AU)   -7.706E-06

 UPDATED TRUST RADIUS     0.979E-01

 SYMMETRY ALLOWED FORCES  (COORDINATE, FORCE)

    1  4.9827056E-05    2 -4.9319085E-04    3 -7.6202167E-05    4  1.4660557E-04
    5 -1.1251206E-04

 GRADIENT NORM     0.000534  GRADIENT THRESHOLD     0.500000

 EIGENVALUES OF THE ESTIMATED HESSIAN
  0.9179E-01  0.1337      0.1545      0.2823      0.3411    

 PREDICTED ENERGY CHANGE    -0.969E-06

 MAX GRADIENT      0.000493  THRESHOLD              0.000045 CONVERGED NO
 RMS GRADIENT      0.000239  THRESHOLD              0.000030 CONVERGED NO
 MAX DISPLAC.      0.002821  THRESHOLD              0.000180 CONVERGED NO
 RMS DISPLAC.      0.001863  THRESHOLD              0.000120 CONVERGED NO
 TTTTTTTTTTTTTTTTTTTTTTTTTTTTTT OPTI        TELAPSE      695.43 TCPU      686.48
 *******************************************************************************
 COORDINATE AND CELL OPTIMIZATION - POINT    7
 *******************************************************************************
 LATTICE PARAMETERS (ANGSTROMS AND DEGREES) - BOHR = 0.5291772083 ANGSTROM
 PRIMITIVE CELL - CENTRING CODE 1/0 VOLUME=    85.558900 - DENSITY  4.653 g/cm^3
         A              B              C           ALPHA      BETA       GAMMA 
     4.50342633     5.51124706     3.44724578    90.000000  90.000000  90.000000
 *******************************************************************************
 ATOMS IN THE ASYMMETRIC UNIT    2 - ATOMS IN THE UNIT CELL:    6
     ATOM                 X/A                 Y/B                 Z/C    
 *******************************************************************************
      1 T  26 FE   -5.000000000000E-01 -5.000000000000E-01 -5.000000000000E-01
      2 F  26 FE    0.000000000000E+00 -2.219492986816E-16 -1.110223024625E-16
      3 T  16 S    -3.064703376750E-01  1.173301313735E-01 -5.000000000000E-01
      4 F  16 S     3.064703376750E-01 -1.173301313735E-01 -5.000000000000E-01
      5 F  16 S     1.935296623250E-01  3.826698686265E-01 -1.110223024625E-16
      6 F  16 S    -1.935296623250E-01 -3.826698686265E-01 -1.110223024625E-16

 T = ATOM BELONGING TO THE ASYMMETRIC UNIT

 TOTAL ENERGY(DFT)(AU)( 14) -4.1192302645410E+03     DE (AU)    7.463E-07

 UPDATED TRUST RADIUS     0.104E-02
 ENERGY CHANGE > 0: STEP REJECTED. RETRYING WITH A NEW STEP

 EIGENVALUES OF THE ESTIMATED HESSIAN
  0.9179E-01  0.1337      0.1545      0.2823      0.3411    
 NEWTON STEP ( 0.4166108031E-02) EXCEEDS TRUST RADIUS ( 0.1041527008E-02)
 LEVEL SHIFT    -0.2564255223E+00

 PREDICTED ENERGY CHANGE    -0.455E-06

 MAX GRADIENT      0.000493  THRESHOLD              0.000045 CONVERGED NO
 RMS GRADIENT      0.000239  THRESHOLD              0.000030 CONVERGED NO
 MAX DISPLAC.      0.000867  THRESHOLD              0.000180 CONVERGED NO
 RMS DISPLAC.      0.000466  THRESHOLD              0.000120 CONVERGED NO
 TTTTTTTTTTTTTTTTTTTTTTTTTTTTTT OPTI        TELAPSE      775.36 TCPU      765.64
 *******************************************************************************
 COORDINATE AND CELL OPTIMIZATION - POINT    8
 *******************************************************************************
 LATTICE PARAMETERS (ANGSTROMS AND DEGREES) - BOHR = 0.5291772083 ANGSTROM
 PRIMITIVE CELL - CENTRING CODE 1/0 VOLUME=    85.549265 - DENSITY  4.654 g/cm^3
         A              B              C           ALPHA      BETA       GAMMA 
     4.50201367     5.51250734     3.44715087    90.000000  90.000000  90.000000
 *******************************************************************************
 ATOMS IN THE ASYMMETRIC UNIT    2 - ATOMS IN THE UNIT CELL:    6
     ATOM                 X/A                 Y/B                 Z/C    
 *******************************************************************************
      1 T  26 FE   -5.000000000000E-01 -5.000000000000E-01 -5.000000000000E-01
      2 F  26 FE    0.000000000000E+00 -2.219513633711E-16 -1.110223024625E-16
      3 T  16 S    -3.064929864636E-01  1.174254489788E-01 -5.000000000000E-01
      4 F  16 S     3.064929864636E-01 -1.174254489788E-01 -5.000000000000E-01
      5 F  16 S     1.935070135364E-01  3.825745510212E-01 -1.110223024625E-16
      6 F  16 S    -1.935070135364E-01 -3.825745510212E-01 -1.110223024625E-16

 T = ATOM BELONGING TO THE ASYMMETRIC UNIT

 TOTAL ENERGY(DFT)(AU)( 15) -4.1192302655222E+03     DE (AU)   -2.349E-07

 UPDATED TRUST RADIUS     0.104E-02

 SYMMETRY ALLOWED FORCES  (COORDINATE, FORCE)

    1  4.2626067E-05    2 -3.2607259E-04    3 -4.3344757E-05    4  9.2658496E-05
    5 -7.7059722E-05

 GRADIENT NORM     0.000353  GRADIENT THRESHOLD     0.500000

 EIGENVALUES OF THE ESTIMATED HESSIAN
  0.1313      0.1363      0.1546      0.2310      0.3058    
 NEWTON STEP ( 0.2057815752E-02) EXCEEDS TRUST RADIUS ( 0.1041527008E-02)
 LEVEL SHIFT     0.1237400139E+00

 PREDICTED ENERGY CHANGE    -0.202E-06

 MAX GRADIENT      0.000326  THRESHOLD              0.000045 CONVERGED NO
 RMS GRADIENT      0.000158  THRESHOLD              0.000030 CONVERGED NO
 MAX DISPLAC.      0.000597  THRESHOLD              0.000180 CONVERGED NO
 RMS DISPLAC.      0.000466  THRESHOLD              0.000120 CONVERGED NO
 TTTTTTTTTTTTTTTTTTTTTTTTTTTTTT OPTI        TELAPSE      892.23 TCPU      881.51
 *******************************************************************************
 COORDINATE AND CELL OPTIMIZATION - POINT    9
 *******************************************************************************
 LATTICE PARAMETERS (ANGSTROMS AND DEGREES) - BOHR = 0.5291772083 ANGSTROM
 PRIMITIVE CELL - CENTRING CODE 1/0 VOLUME=    85.555937 - DENSITY  4.653 g/cm^3
         A              B              C           ALPHA      BETA       GAMMA 
     4.50248204     5.51213321     3.44729509    90.000000  90.000000  90.000000
 *******************************************************************************
 ATOMS IN THE ASYMMETRIC UNIT    2 - ATOMS IN THE UNIT CELL:    6
     ATOM                 X/A                 Y/B                 Z/C    
 *******************************************************************************
      1 T  26 FE    5.000000000000E-01  5.000000000000E-01 -5.000000000000E-01
      2 F  26 FE    0.000000000000E+00 -2.219507663077E-16 -1.110223024625E-16
      3 T  16 S    -3.064793175132E-01  1.173978851956E-01 -5.000000000000E-01
      4 F  16 S     3.064793175132E-01 -1.173978851956E-01 -5.000000000000E-01
      5 F  16 S     1.935206824868E-01  3.826021148044E-01 -1.110223024625E-16
      6 F  16 S    -1.935206824868E-01 -3.826021148044E-01 -1.110223024625E-16

 T = ATOM BELONGING TO THE ASYMMETRIC UNIT

 TOTAL ENERGY(DFT)(AU)( 12) -4.1192302652436E+03     DE (AU)    2.787E-07

 UPDATED TRUST RADIUS     0.260E-03
 ENERGY CHANGE > 0: STEP REJECTED. RETRYING WITH A NEW STEP

 EIGENVALUES OF THE ESTIMATED HESSIAN
  0.1313      0.1363      0.1546      0.2310      0.3058    
 NEWTON STEP ( 0.2057815752E-02) EXCEEDS TRUST RADIUS ( 0.2603817520E-03)
 LEVEL SHIFT     0.1009816972E+00

 PREDICTED ENERGY CHANGE    -0.733E-07

 MAX GRADIENT      0.000326  THRESHOLD              0.000045 CONVERGED NO
 RMS GRADIENT      0.000158  THRESHOLD              0.000030 CONVERGED NO
 MAX DISPLAC.      0.000172  THRESHOLD              0.000180 CONVERGED YES
 RMS DISPLAC.      0.000116  THRESHOLD              0.000120 CONVERGED YES
 TTTTTTTTTTTTTTTTTTTTTTTTTTTTTT OPTI        TELAPSE      962.12 TCPU      950.73
 *******************************************************************************
 COORDINATE AND CELL OPTIMIZATION - POINT   10
 *******************************************************************************
 LATTICE PARAMETERS (ANGSTROMS AND DEGREES) - BOHR = 0.5291772083 ANGSTROM
 PRIMITIVE CELL - CENTRING CODE 1/0 VOLUME=    85.550356 - DENSITY  4.654 g/cm^3
         A              B              C           ALPHA      BETA       GAMMA 
     4.50211232     5.51241146     3.44717925    90.000000  90.000000  90.000000
 *******************************************************************************
 ATOMS IN THE ASYMMETRIC UNIT    2 - ATOMS IN THE UNIT CELL:    6
     ATOM                 X/A                 Y/B                 Z/C    
 *******************************************************************************
      1 T  26 FE   -5.000000000000E-01 -5.000000000000E-01 -5.000000000000E-01
      2 F  26 FE    0.000000000000E+00 -2.219511814147E-16 -1.110223024625E-16
      3 T  16 S    -3.064898283811E-01  1.174170488516E-01 -5.000000000000E-01
      4 F  16 S     3.064898283811E-01 -1.174170488516E-01 -5.000000000000E-01
      5 F  16 S     1.935101716189E-01  3.825829511484E-01 -1.110223024625E-16
      6 F  16 S    -1.935101716189E-01 -3.825829511484E-01 -1.110223024625E-16

 T = ATOM BELONGING TO THE ASYMMETRIC UNIT

 TOTAL ENERGY(DFT)(AU)( 13) -4.1192302654917E+03     DE (AU)    3.059E-08

 UPDATED TRUST RADIUS     0.651E-04

 SYMMETRY ALLOWED FORCES  (COORDINATE, FORCE)

    1  3.2975556E-05    2 -2.9682671E-04    3 -4.8180787E-05    4  7.3699619E-05
    5 -6.4103104E-05

 GRADIENT NORM     0.000318  GRADIENT THRESHOLD     0.500000

 EIGENVALUES OF THE ESTIMATED HESSIAN
  0.1275      0.1441      0.1548      0.2251      0.3094    
 NEWTON STEP ( 0.1841557856E-02) EXCEEDS TRUST RADIUS ( 0.6509543799E-04)
 LEVEL SHIFT    -0.1634959190E+01

 PREDICTED ENERGY CHANGE    -0.203E-07

 MAX GRADIENT      0.000297  THRESHOLD              0.000045 CONVERGED NO
 RMS GRADIENT      0.000142  THRESHOLD              0.000030 CONVERGED NO
 MAX DISPLAC.      0.000060  THRESHOLD              0.000180 CONVERGED YES
 RMS DISPLAC.      0.000029  THRESHOLD              0.000120 CONVERGED YES
 TTTTTTTTTTTTTTTTTTTTTTTTTTTTTT OPTI        TELAPSE     1068.82 TCPU     1056.45
 *******************************************************************************
 COORDINATE AND CELL OPTIMIZATION - POINT   11
 *******************************************************************************
 LATTICE PARAMETERS (ANGSTROMS AND DEGREES) - BOHR = 0.5291772083 ANGSTROM
 PRIMITIVE CELL - CENTRING CODE 1/0 VOLUME=    85.550146 - DENSITY  4.654 g/cm^3
         A              B              C           ALPHA      BETA       GAMMA 
     4.50211797     5.51239284     3.44717810    90.000000  90.000000  90.000000
[...]
 MAX G-VECTOR INDEX FOR 1- AND 2-ELECTRON INTEGRALS 551

 TTTTTTTTTTTTTTTTTTTTTTTTTTTTTT INPUT       TELAPSE     8963.38 TCPU     8217.89

 SYMMETRY ALLOWED INTERNAL DEGREE(S) OF FREEDOM:   2
 TTTTTTTTTTTTTTTTTTTTTTTTTTTTTT SYMM        TELAPSE     8963.42 TCPU     8217.94
 TTTTTTTTTTTTTTTTTTTTTTTTTTTTTT INT_SCREEN  TELAPSE     8963.42 TCPU     8217.94

 HHHHHHHHHHHHHHHHHHHHHHHHHHHHHHHHHHHHHHHHHHHHHHHHHHHHHHHHHHHHHHHHHHHHHHHHHHHHHHH
                   FORCE CONSTANT MATRIX - NUMERICAL ESTIMATE
 HHHHHHHHHHHHHHHHHHHHHHHHHHHHHHHHHHHHHHHHHHHHHHHHHHHHHHHHHHHHHHHHHHHHHHHHHHHHHHH
 MAX ABS(DGRAD): MAXIMUM ABSOLUTE GRADIENT DIFFERENCE WITH RESPECT TO
                 THE CENTRAL POINT
 DE:             ENERGY DIFFERENCE WITH RESPECT TO THE CENTRAL POINT
                 (DE IS EXPECTED TO BE POSITIVE FOR ALL DISPLACEMENTS)

   ATOM      MAX ABS(DGRAD)       TOTAL ENERGY (AU)  N.CYC      DE       SYM
    CENTRAL POINT             -4.119230128827E+03     0     0.0000E+00     8
    1 FE DX   1.0155E-03      -4.119230125654E+03    11     3.1727E-06     2
    1 FE DY   1.1504E-03      -4.119230125268E+03    12     3.5586E-06     2
    1 FE DZ   9.7738E-04      -4.119230126190E+03    11     2.6372E-06     2
    3 S  DX   1.0072E-03      -4.119230123901E+03    14     4.9261E-06     2
    3 S  DY   9.7344E-04      -4.119230125456E+03    15     3.3707E-06     2
    3 S  DZ   6.7416E-04      -4.119230125646E+03    13     3.1812E-06     1

 GCALCO - MAX INDICES DIRECT LATTICE VECTOR    14    11    19
 NO.OF VECTORS CREATED 6999 STARS 1053 RMAX    98.77841 BOHR

 CAPPA:IS1  8;IS2  8;IS3  8; K PTS MONK NET 125; SYMMOPS:K SPACE   8;G SPACE   8

 TTTTTTTTTTTTTTTTTTTTTTTTTTTTTT gordsh1     TELAPSE    10846.58 TCPU    10036.63

 MATRIX SIZE: P(G) 1152140, F(G)   93534, P(G) IRR   87489, F(G) IRR   15939
 MAX G-VECTOR INDEX FOR 1- AND 2-ELECTRON INTEGRALS 551

 TTTTTTTTTTTTTTTTTTTTTTTTTTTTTT INPUT       TELAPSE    10846.58 TCPU    10036.63

 SYMMETRY ALLOWED INTERNAL DEGREE(S) OF FREEDOM:   2
 TTTTTTTTTTTTTTTTTTTTTTTTTTTTTT SYMM        TELAPSE    10846.62 TCPU    10036.68
 TTTTTTTTTTTTTTTTTTTTTTTTTTTTTT INT_SCREEN  TELAPSE    10846.62 TCPU    10036.68

 ATOMIC BORN CHARGE TENSOR (UNITS OF e, ELECTRON CHARGE).
 DYNAMIC CHARGE = 1/3 * TRACE .

 ATOM   1 FE DYNAMIC CHARGE    -0.980437

              1           2           3
   1    -1.1411E+00  2.1992E-01  2.0594E-24
   2     4.6144E-01 -1.3467E+00  4.0209E-24
   3     6.6174E-24  8.2873E-25 -4.5349E-01

 ATOM   2 FE DYNAMIC CHARGE    -0.980437

              1           2           3
   1    -1.1411E+00 -2.1992E-01 -4.0501E-25
   2    -4.6144E-01 -1.3467E+00  7.1219E-25
   3     0.0000E+00  1.5521E-27 -4.5349E-01

 ATOM   3 S  DYNAMIC CHARGE     0.490243

              1           2           3
   1     5.7059E-01  5.2082E-01  1.4918E-22
   2     5.4751E-01  6.7339E-01  2.9062E-23
   3    -1.3235E-23 -2.2707E-22  2.2675E-01

 ATOM   4 S  DYNAMIC CHARGE     0.490243

              1           2           3
   1     5.7059E-01  5.2082E-01 -4.3298E-23
   2     5.4751E-01  6.7339E-01 -2.5922E-24
   3     0.0000E+00  1.5310E-23  2.2675E-01

 ATOM   5 S  DYNAMIC CHARGE     0.490243

              1           2           3
   1     5.7059E-01 -5.2082E-01 -4.3298E-23
   2    -5.4751E-01  6.7339E-01  2.5922E-24
   3     0.0000E+00 -1.5310E-23  2.2675E-01

 ATOM   6 S  DYNAMIC CHARGE     0.490243

              1           2           3
   1     5.7059E-01 -5.2082E-01  4.3298E-23
   2    -5.4751E-01  6.7339E-01 -2.5922E-24
   3     0.0000E+00  1.5310E-23  2.2675E-01

 +++ SYMMETRY ADAPTION OF VIBRATIONAL MODES +++

 SYMMETRY INFORMATION:
 K-LITTLE GROUP: CLASS TABLE, CHARACTER TABLE.
 IRREP-(DIMENSION, NO. IRREDUCIBLE SETS)
 [WARNINGS: (1) ONLY ACTIVE IRREPS ARE GENERATED AND LISTED.
            (2) ONLY RELEVANT CLASSES ARE CONSIDERED IN THE CHARACTER TABLE
            (3) SYMBOLS MAY NOT FULLY COINCIDE WITH THOSE FROM TEXT BOOKS.]

 (P, D, RP, RD, STAND FOR PAIRING, DOUBLING, REAL PAIRING AND REAL DOUBLING 
 OF THE IRREPS (SEE MANUAL))

 CLASS  | GROUP OPERATORS (SEE SYMMOPS KEYWORD)
 --------------------------------------------------------------------
 C2     |   2;
 C2'    |   3;
 C2''   |   4;
 I      |   5;
 SGH    |   6;
 SGV    |   7;
 SGV'   |   8;

 IRREP/CLA      E     C2    C2'   C2''      I    SGH    SGV   SGV'
 -----------------------------------------------------------------
  MULTIP |      1      1      1      1      1      1      1      1
 -----------------------------------------------------------------
    Ag   |   1.00   1.00   1.00   1.00   1.00   1.00   1.00   1.00
    B1g  |   1.00   1.00  -1.00  -1.00   1.00   1.00  -1.00  -1.00
    B2g  |   1.00  -1.00   1.00  -1.00   1.00  -1.00   1.00  -1.00
    B3g  |   1.00  -1.00  -1.00   1.00   1.00  -1.00  -1.00   1.00
    Au   |   1.00   1.00   1.00   1.00  -1.00  -1.00  -1.00  -1.00
    B1u  |   1.00   1.00  -1.00  -1.00  -1.00  -1.00   1.00   1.00
    B2u  |   1.00  -1.00   1.00  -1.00  -1.00   1.00  -1.00   1.00
    B3u  |   1.00  -1.00  -1.00   1.00  -1.00   1.00   1.00  -1.00

 Ag -(1,   2); B1g-(1,   2); B2g-(1,   1); B3g-(1,   1);
 Au -(1,   2); B1u-(1,   2); B2u-(1,   4); B3u-(1,   4);

 BORN CHARGE VECTOR IN THE BASIS OF NORMAL MODES (UNITS OF e*M_E**(-1/2) ).
 e AND M_E ARE UNITS OF ELECTRON CHARGE AND MASS, RESPECTIVELY.

 MODE         X              Y              Z
   1   -0.16266E-24   -0.47198E-25   -0.57907E-07
   2   -0.29657E-19    0.27819E-06   -0.31906E-24
   3    0.10871E-06    0.21041E-19   -0.10010E-25
   4    0.12321E-24    0.25953E-25    0.24522E-18
   5    0.21832E-18   -0.19610E-02    0.52798E-25
   6   -0.80331E-03    0.15281E-18    0.21338E-25
   7   -0.57799E-24   -0.54822E-25   -0.10872E-18
   8   -0.21929E-24   -0.76297E-25   -0.13506E-18
   9   -0.20836E-18    0.60467E-02   -0.60250E-25
  10   -0.59647E-02   -0.50637E-19    0.43023E-24
  11    0.18149E-24    0.48842E-25    0.14082E-18
  12   -0.11753E-18   -0.18314E-18    0.39413E-24
  13    0.55884E-02    0.98623E-19    0.87534E-25
  14    0.12148E-20   -0.72455E-19    0.46142E-24
  15    0.14712E-24    0.29793E-25    0.27501E-02
  16    0.95553E-19   -0.71439E-02    0.29173E-24
  17    0.29167E-19   -0.82501E-19    0.19432E-24
  18   -0.78625E-20    0.35546E-18   -0.32793E-24

 HHHHHHHHHHHHHHHHHHHHHHHHHHHHHHHHHHHHHHHHHHHHHHHHHHHHHHHHHHHHHHHHHHHHHHHHHHHHHH
 VIBRATIONAL CONTRIBUTIONS TO THE STATIC DIELECTRIC TENSOR (OSCILLATOR
 STRENGTHS) ARE PURE NUMBERS. THEY ARE COMPUTED FOR EACH nth MODE AS:

   f_(n,ij) = 1 / (4 * pi * eps0) * 4 * pi / V * Z_(n,i) * Z_(n,j) / nu_n**2

 WHERE:
  1/(4*pi*eps0)  1 A.U. [M*L**3*T**(-4)*C**(-2)]
  V              CELL VOLUME (BOHR**3) [L**3]
  Z_(n,i)        ith COMPONENT OF BORN CHARGE VECTOR IN THE BASIS
                 OF NORMAL MODES ( e*M_E**(-1/2) ) [C*T*M**(-1/2)]
  nu_n           FREQUENCY (HARTREE) [T**(-1)]
  e, M_E         UNITS OF ELECTRON CHARGE AND MASS, RESPECTIVELY
  M, L, T, C     MASS, LENGTH, TIME, CURRENT, RESPECTIVELY

 HHHHHHHHHHHHHHHHHHHHHHHHHHHHHHHHHHHHHHHHHHHHHHHHHHHHHHHHHHHHHHHHHHHHHHHHHHHHHH

 MODE      CARTESIAN AXES SYSTEM

   5       0.00000   -0.00000    0.00000
          -0.00000    0.06510   -0.00000
           0.00000   -0.00000    0.00000

   6       0.00748   -0.00000   -0.00000
          -0.00000    0.00000    0.00000
          -0.00000    0.00000    0.00000

   9       0.00000   -0.00000    0.00000
          -0.00000    0.32783   -0.00000
           0.00000   -0.00000    0.00000

  10       0.30178    0.00000   -0.00000
           0.00000    0.00000   -0.00000
          -0.00000   -0.00000    0.00000

  13       0.19757    0.00000    0.00000
           0.00000    0.00000    0.00000
           0.00000    0.00000    0.00000

  15       0.00000    0.00000    0.00000
           0.00000    0.00000    0.00000
           0.00000    0.00000    0.04625

  16       0.00000   -0.00000    0.00000
          -0.00000    0.28834   -0.00000
           0.00000   -0.00000    0.00000

 SUM TENSOR OF THE VIBRATIONAL CONTRIBUTIONS TO THE STATIC DIELECTRIC     TENSOR

           0.50684   -0.00000   -0.00000
          -0.00000    0.68127   -0.00000
          -0.00000   -0.00000    0.04625

 INTEGRATED IR INTENSITIES, IN UNITS OF KM/MOL, ARE COMPUTED UNDER THE
 HYPOTHESIS OF ISOTROPIC RESPONSE (I.E. POWDER SAMPLE):

   INTENS_n = 1 / (4 * pi * eps0) * pi * N_AV / 3 / c**2 *
                             * d_n * ( Z_(n,x)**2 + Z_(n,y)**2 + Z_(n,z)**2 )
            = 0.17770712E+07 * d_n * ( Z_(n,x)**2 + Z_(n,y)**2 + Z_(n,z)**2 )

 WHERE:
  1/(4*pi*eps0)  1 A.U. [M*L**3*T**(-4)*C**(-2)]
  N_AV           AVOGADRO'S NUMBER [QM**(-1)]
  c              SPEED OF LIGHT [L*T**(-1)]
  d_n            DEGENERACY OF THE MODE
  Z_(n,x)        xth COMPONENT OF BORN CHARGE VECTOR IN THE BASIS
                 OF NORMAL MODES ( e*M_E**(-1/2) ) [C*T*M**(-1/2)]
  M,L,T,C,QM     MASS, LENGTH, TIME, CURRENT, QUANTITY OF MATTER, RESPECTIVELY

 HHHHHHHHHHHHHHHHHHHHHHHHHHHHHHHHHHHHHHHHHHHHHHHHHHHHHHHHHHHHHHHHHHHHHHHHHHHHHH
 EIGENVALUES (EIGV) OF THE MASS WEIGHTED HESSIAN MATRIX AND HARMONIC TRANSVERSE
 OPTICAL (TO) FREQUENCIES. IRREP LABELS REFER TO SYMMETRY REPRESENTATION
 ANALYSIS; A AND I INDICATE WHETHER THE MODE IS ACTIVE OR INACTIVE,
 RESPECTIVELY, FOR IR AND RAMAN; INTEGRATED IR INTENSITIES IN BRACKETS.

 CONVERSION FACTORS FOR FREQUENCIES:
      1 CM**(-1) =   0.4556335E-05 HARTREE
      1 THZ      =   0.3335641E+02 CM**(-1)

 HHHHHHHHHHHHHHHHHHHHHHHHHHHHHHHHHHHHHHHHHHHHHHHHHHHHHHHHHHHHHHHHHHHHHHHHHHHHHH

    MODES         EIGV          FREQUENCIES     IRREP  IR   INTENS    RAMAN
             (HARTREE**2)   (CM**-1)     (THZ)             (KM/MOL)
    1-   1   -0.8374E-22      0.0000    0.0000  (B1u)   A (     0.00)   I
    2-   2    0.1013E-22      0.0000    0.0000  (B3u)   A (     0.00)   I
    3-   3    0.2168E-21      0.0000    0.0000  (B2u)   A (     0.00)   I
    4-   4    0.8438E-06    201.6056    6.0440  (Au )   I (     0.00)   I
    5-   5    0.1285E-05    248.8314    7.4598  (B3u)   A (     6.83)   I
    6-   6    0.1876E-05    300.6390    9.0129  (B2u)   A (     1.15)   I
    7-   7    0.2117E-05    319.3137    9.5728  (B2g)   I (     0.00)   A
    8-   8    0.2293E-05    332.3076    9.9623  (B3g)   I (     0.00)   A
    9-   9    0.2427E-05    341.9206   10.2505  (B3u)   A (    64.97)   I
   10-  10    0.2566E-05    351.5399   10.5389  (B2u)   A (    63.22)   I
   11-  11    0.2732E-05    362.7618   10.8753  (Au )   I (     0.00)   I
   12-  12    0.3302E-05    398.8292   11.9566  (Ag )   I (     0.00)   A
   13-  13    0.3440E-05    407.0530   12.2031  (B2u)   A (    55.50)   I
   14-  14    0.3483E-05    409.6265   12.2803  (B1g)   I (     0.00)   A
   15-  15    0.3558E-05    413.9968   12.4113  (B1u)   A (    13.44)   I
   16-  16    0.3852E-05    430.7411   12.9133  (B3u)   A (    90.69)   I
   17-  17    0.4101E-05    444.4687   13.3248  (Ag )   I (     0.00)   A
   18-  18    0.5139E-05    497.5434   14.9160  (B1g)   I (     0.00)   A

 <RAMAN><RAMAN><RAMAN><RAMAN><RAMAN><RAMAN><RAMAN><RAMAN><RAMAN><RAMAN><RAMAN>
 <RAMAN><RAMAN><RAMAN><RAMAN><RAMAN><RAMAN><RAMAN><RAMAN><RAMAN><RAMAN><RAMAN>

 RAMAN INTENSITIES UNDER PLACZECK APPROXIMATION ARE COMPUTED AS:

  DIRECTIONAL (SINGLE CRYSTAL) :

     I_ij(n)= VOLUME*X(n,i,j)**2

  ISOTROPIC (POLYCRYSTALLINE POWDERS, GASES) :

     G_0(n) = 1/3*(SUM_i X(n,i,i))**2
     G_1(n) = 1/2*SUM_i,j (X(n,i,j)+X(n,j,i))**2
     G_2(n) = 1/3*SUM_i,j (X(n,i,i)-X(n,j,j))**2

     I_par(n)  = VOLUME*( 15*G_0(n) + 6*(G_1(n) + G_2(n)) )
     I_perp(n) = VOLUME*9/2*( G_1(n) + G_2(n) )
     I_tot(n)  = I_par(n) + I_perp(n)

  WHERE X(n,i,j) IS THE i,j-th COMPONENT OF THE RAMAN TENSOR
  IN THE BASIS OF NORMAL MODE n

  ALL VALUES ARE NORMALIZED TO THE MOST INTENSE PEAK


  INTENSITIES HAVE BEEN CALCULATED AT 
  TEMPERATURE                  :    298.0 K
  FREQUENCY OF INCOMING LASER  :    514.0 NM


 REFERENCES TO BE QUOTED FOR RAMAN INTENSITIES:

 L.MASCHIO, B.KIRTMAN, M.RERAT, R.ORLANDO and R.DOVESI, JCP 139, 164101 (2013)
 L.MASCHIO, B.KIRTMAN, M.RERAT, R.ORLANDO and R.DOVESI, JCP 139, 164102 (2013)

  --
  POLYCRYSTALLINE ISOTROPIC INTENSITIES (ARBITRARY UNITS)

    MODES    FREQUENCIES           I_tot     I_par    I_perp
  ----------------------------------------------------------------
    7-   7      319.3137 (B2g)      7.24      4.14      3.10
    8-   8      332.3076 (B3g)     87.50     50.00     37.50
   12-  12      398.8292 (Ag )    218.98    154.83     64.15
   14-  14      409.6265 (B1g)      2.15      1.23      0.92
   17-  17      444.4687 (Ag )   1000.00    979.27     20.73
   18-  18      497.5434 (B1g)     51.32     29.33     22.00

  --
  SINGLE CRYSTAL DIRECTIONAL INTENSITIES (ARBITRARY UNITS)

    MODES    FREQUENCIES          I_xx    I_xy    I_xz    I_yy    I_yz    I_zz
  ----------------------------------------------------------------------------
    7-   7      319.3137 (B2g)    0.00    0.00    0.00    0.00    9.20    0.00
    8-   8      332.3076 (B3g)    0.00    0.00  111.09    0.00    0.00    0.00
   12-  12      398.8292 (Ag )    0.47    0.00    0.00  497.07    0.00    5.70
   14-  14      409.6265 (B1g)    0.00    2.73    0.00    0.00    0.00    0.00
   17-  17      444.4687 (Ag ) 1000.00    0.00    0.00  559.81    0.00  254.44
   18-  18      497.5434 (B1g)    0.00   65.16    0.00    0.00    0.00    0.00

 <RAMAN><RAMAN><RAMAN><RAMAN><RAMAN><RAMAN><RAMAN><RAMAN><RAMAN><RAMAN><RAMAN>
 <RAMAN><RAMAN><RAMAN><RAMAN><RAMAN><RAMAN><RAMAN><RAMAN><RAMAN><RAMAN><RAMAN>


 NORMAL MODES NORMALIZED TO CLASSICAL AMPLITUDES (IN BOHR)

 FREQ(CM**-1)      0.00      0.00      0.00    201.61    248.83    300.64

 AT.   1 FE X     0.0000   -0.0000    0.0646    0.0000    0.0506    0.0103
            Y     0.0000    0.0646   -0.0000    0.0000    0.0039    0.0581
            Z    -0.0646    0.0000    0.0000   -0.0594    0.0000    0.0000
 AT.   2 FE X     0.0000    0.0000    0.0646    0.0000   -0.0506    0.0103
            Y     0.0000    0.0646    0.0000    0.0000    0.0039   -0.0581
            Z    -0.0646    0.0000    0.0000    0.0594    0.0000    0.0000
 AT.   3 S  X     0.0000    0.0000    0.0646    0.0000   -0.0390   -0.0090
            Y     0.0000    0.0646    0.0000    0.0000   -0.0034   -0.0016
            Z    -0.0646    0.0000    0.0000    0.0398    0.0000    0.0000
 AT.   4 S  X     0.0000    0.0000    0.0646    0.0000   -0.0390   -0.0090
            Y     0.0000    0.0646    0.0000    0.0000   -0.0034   -0.0016
            Z    -0.0646    0.0000    0.0000    0.0398    0.0000    0.0000
 AT.   5 S  X     0.0000   -0.0000    0.0646    0.0000    0.0390   -0.0090
            Y     0.0000    0.0646   -0.0000    0.0000   -0.0034    0.0016
            Z    -0.0646    0.0000    0.0000   -0.0398    0.0000    0.0000
 AT.   6 S  X     0.0000   -0.0000    0.0646    0.0000    0.0390   -0.0090
            Y     0.0000    0.0646   -0.0000    0.0000   -0.0034    0.0016
            Z    -0.0646    0.0000    0.0000   -0.0398    0.0000    0.0000

 FREQ(CM**-1)    319.31    332.31    341.92    351.54    362.76    398.83

 AT.   1 FE X     0.0000    0.0000    0.0358    0.0100    0.0000    0.0000
            Y     0.0000    0.0000   -0.0067   -0.0049    0.0000    0.0000
            Z     0.0000    0.0000    0.0000    0.0000    0.0317    0.0000
 AT.   2 FE X     0.0000    0.0000   -0.0358    0.0100    0.0000    0.0000
            Y     0.0000    0.0000   -0.0067    0.0049    0.0000    0.0000
            Z     0.0000    0.0000    0.0000    0.0000   -0.0317    0.0000
 AT.   3 S  X     0.0000    0.0000    0.0395   -0.0088    0.0000    0.0187
            Y     0.0000    0.0000    0.0058   -0.0499    0.0000   -0.0448
            Z    -0.0543   -0.0532    0.0000    0.0000    0.0414    0.0000
 AT.   4 S  X     0.0000    0.0000    0.0395   -0.0088    0.0000   -0.0187
            Y     0.0000    0.0000    0.0058   -0.0499    0.0000    0.0448
            Z     0.0543    0.0532    0.0000    0.0000    0.0414    0.0000
 AT.   5 S  X     0.0000    0.0000   -0.0395   -0.0088    0.0000    0.0187
            Y     0.0000    0.0000    0.0058    0.0499    0.0000    0.0448
            Z     0.0543   -0.0532    0.0000    0.0000   -0.0414    0.0000
 AT.   6 S  X     0.0000    0.0000   -0.0395   -0.0088    0.0000   -0.0187
            Y     0.0000    0.0000    0.0058    0.0499    0.0000   -0.0448
            Z    -0.0543    0.0532    0.0000    0.0000   -0.0414    0.0000

 FREQ(CM**-1)    407.05    409.63    414.00    430.74    444.47    497.54

 AT.   1 FE X    -0.0353    0.0000    0.0000    0.0021    0.0000    0.0000
            Y     0.0113    0.0000    0.0000    0.0359    0.0000    0.0000
            Z     0.0000    0.0000   -0.0372    0.0000    0.0000    0.0000
 AT.   2 FE X    -0.0353    0.0000    0.0000   -0.0021    0.0000    0.0000
            Y    -0.0113    0.0000    0.0000    0.0359    0.0000    0.0000
            Z     0.0000    0.0000   -0.0372    0.0000    0.0000    0.0000
 AT.   3 S  X     0.0309    0.0258    0.0000    0.0082   -0.0425    0.0366
            Y    -0.0126   -0.0404    0.0000   -0.0314   -0.0177    0.0235
            Z     0.0000    0.0000    0.0326    0.0000    0.0000    0.0000
 AT.   4 S  X     0.0309   -0.0258    0.0000    0.0082    0.0425   -0.0366
            Y    -0.0126    0.0404    0.0000   -0.0314    0.0177   -0.0235
            Z     0.0000    0.0000    0.0326    0.0000    0.0000    0.0000
 AT.   5 S  X     0.0309   -0.0258    0.0000   -0.0082   -0.0425   -0.0366
            Y     0.0126   -0.0404    0.0000   -0.0314    0.0177    0.0235
            Z     0.0000    0.0000    0.0326    0.0000    0.0000    0.0000
 AT.   6 S  X     0.0309    0.0258    0.0000   -0.0082    0.0425    0.0366
            Y     0.0126    0.0404    0.0000   -0.0314   -0.0177   -0.0235
            Z     0.0000    0.0000    0.0326    0.0000    0.0000    0.0000

 *******************************************************************************

 VIBRATIONAL TEMPERATURES (K) [MODE NUMBER;IRREP]

 TO MODES
   290.1 [   4;Au ]   358.0 [   5;B3u]   432.6 [   6;B2u]   459.4 [   7;B2g]
   478.1 [   8;B3g]   491.9 [   9;B3u]   505.8 [  10;B2u]   521.9 [  11;Au ]
   573.8 [  12;Ag ]   585.7 [  13;B2u]   589.4 [  14;B1g]   595.6 [  15;B1u]
   619.7 [  16;B3u]   639.5 [  17;Ag ]   715.9 [  18;B1g]

 *******************************************************************************

 HARMONIC VIBRATIONAL CONTRIBUTIONS TO THERMODYNAMIC FUNCTIONS AT GIVEN
 TEMPERATURE AND PRESSURE:

 (EL = ELECTRONIC ENERGY
  E0 = ZERO-POINT ENERGY
  ET = THERMAL CONTRIBUTION TO THE VIBRATIONAL ENERGY
  PV = PRESSURE * VOLUME
  TS = TEMPERATURE * ENTROPY)

                          AU/CELL             EV/CELL                 KJ/MOL
 EL            :   -4119.230128826874 -112089.950348339451   -10815037.17911981
 E0            :       0.012441479117       0.338549858303          32.66509882


 *******************************************************************************

 THERMODYNAMIC FUNCTIONS WITH VIBRATIONAL CONTRIBUTIONS

 AT (T =  298.15 K, P =   0.10132500E+00 MPA):

                          AU/CELL             EV/CELL                 KJ/MOL
 ET            :       0.005305120422       0.144359665778          13.92859170
 PV            :       0.000001988747       0.000054116565           0.00522146
 TS            :       0.008259498873       0.224752390530          21.68531124
 ET+PV-TS      :      -0.002952389704      -0.080338608187          -7.75149808
 EL+E0+ET+PV-TS:   -4119.220639737462 -112089.692137089354   -10815012.26551907

 OTHER THERMODYNAMIC FUNCTIONS:

                      mHARTREE/(CELL*K)     mEV/(CELL*K)              J/(MOL*K)
 ENTROPY       :       0.027702494963       0.753823211573          72.73289028
 HEAT CAPACITY :       0.036786231473       1.001004248445          96.58223712

 *******************************************************************************
 TTTTTTTTTTTTTTTTTTTTTTTTTTTTTT END         TELAPSE    10856.95 TCPU    10036.73
 EEEEEEEEEE TERMINATION  DATE 29 05 2023 TIME 21:11:02.2
