         256 PROCESSORS WORKING

         
 *******************************************************************************
 *                                                                             *
 *                               CRYSTAL23                                     *
 *                      public : 1.0.1 - October 2022                          *
 *                       HTTP://WWW.CRYSTAL.UNITO.IT                           *
 *                                                                             *
 *                              MAIN AUTHORS                                   *
 *                                                                             *
 *  R. DOVESI(1,11), V.R. SAUNDERS(2), C. ROETTI(1,11), R. ORLANDO(1,11),      *
 *  C.M. ZICOVICH-WILSON(1,3), F. PASCALE(4), B. CIVALLERI(1,11),              *
 *  K. DOLL(5), N.M. HARRISON(6), I.J. BUSH(7), Ph. D'ARCO(8),                 *
 *  M. LLUNELL(9), M. CAUSA'(10), Y. NOEL(8), L. MASCHIO(1,11), A. ERBA(1,11)  *
 *  M. RE'RAT(14), S. CASASSA(1,11), B.G. SEARLE(2), J.K. DESMARAIS(1)         *
 *                                                                             *
 *        CONTRIBUTIONS TO THE CODE HAVE ALSO BEEN GIVEN BY                    *
 *                                                                             *
 *  M. FERRABONE(1,11), M. DE LA PIERRE(1,11), M. FERRERO(1,11),               *
 *  J. BAIMA(1,11), E. ALBANESE(1,11), M.F. PEINTINGER(12), R. BAST(13),       *
 *  B. KIRTMAN(15), V. LACIVITA(1,11), R. DEMICHELIS(1,16)                     *
 *  G. BRANDEBURG(17), S. SALUSTRO(1,11), G. SANSONE(1,11)                     *
 *  M.T. RUGGIERO(18), L.E. DAGA(1), L. DONA'(1), A. COSSARD(1)                *
 *                                                                             *
 * (1) THEORETICAL CHEMISTRY GROUP - UNIVERSITA' DI TORINO - TORINO (ITALY)    *
 * (2) SCIENTIFIC COMPUTING DEPARTMENT - STFC DARESBURY (UK)                   *
 * (3) UNIVERSIDAD AUTONOMA DEL ESTADO DE MORELOS - CUERNAVACA (MEXICO)        *
 * (4) UNIVERSITE' DE LORRAINE - NANCY (FRANCE)                                *
 * (5) UNIVERSITAET STUTTGART- STUTTGART (GERMANY)                             *
 * (6) IMPERIAL COLLEGE - LONDON (UK)                                          *
 * (7) SCIENTIFIC COMPUTING DEPARTMENT - STFC RAL (UK)                         *
 * (8) UPMC - SORBONNE UNIVERSITES - PARIS (FRANCE)                            *
 * (9) UNIVERSIDAD DE BARCELONA - BARCELONA (SPAIN)                            *
 *(10) UNIVERSITA' DI NAPOLI "FEDERICO II" - NAPOLI (ITALY)                    *
 *(11) NIS - NANOSTRUCTURED INTERFACES AND SURFACES - TORINO (ITALY)           *
 *(12) MPI FUER CHEMISCHE ENERGIEKONVERSION - MUELHEIM AN DER RUHR (GERMANY)   *
 *(13) UNIVERSITY OF TROMSO - TROMSO (NORWAY)                                  *
 *(14) UNIVERSITE' DE PAU ET DES PAYS DE L'ADOUR - PAU (FRANCE)                *
 *(15) UNIVERSITY OF CALIFORNIA SANTA BARBARA - SANTA BARBARA (USA)            *
 *(16) CURTIN UNIVERSITY - PERTH (AUSTRALIA)                                   *
 *(17) UNIVERSITY COLLEGE LONDON - LONDON (UK)                                 *
 *(18) UNIVERSITY OF VERMONT - BURLINGTON (USA)                                *
 *                                                                             *
 *******************************************************************************
 EEEEEEEEEE STARTING  DATE 29 05 2023 TIME 18:03:19.9
 ICSD_CollCode69129.cif                                                          

 CRYSTAL CALCULATION
 (INPUT ACCORDING TO THE INTERNATIONAL TABLES FOR X-RAY CRYSTALLOGRAPHY)
 CRYSTAL FAMILY                       :  ORTHORHOMBIC
 CRYSTAL CLASS  (GROTH - 1921)        :  ORTHORHOMBIC PYRAMIDAL               

 SPACE GROUP (NONCENTROSYMMETRIC)     :  P C A 21        

 LATTICE PARAMETERS  (ANGSTROMS AND DEGREES) - CONVENTIONAL CELL
        A           B           C        ALPHA        BETA       GAMMA
     5.58330     5.58920     5.58120    90.00000    90.00000    90.00000


 NUMBER OF IRREDUCIBLE ATOMS IN THE CONVENTIONAL CELL:    3

 INPUT COORDINATES

 ATOM AT. N.              COORDINATES
   1  27     4.950400000000E-01  7.409100000000E-01  0.000000000000E+00
   2  33     1.188500000000E-01  1.306500000000E-01  6.166800000000E-01
   3  16     8.826600000000E-01  3.687100000000E-01  3.799600000000E-01

 *******************************************************************************

 << INFORMATION >>: FROM NOW ON, ALL COORDINATES REFER TO THE PRIMITIVE CELL

 *******************************************************************************

 LATTICE PARAMETERS  (ANGSTROMS AND DEGREES) - PRIMITIVE CELL
       A          B          C        ALPHA      BETA     GAMMA        VOLUME
    5.58330    5.58920    5.58120    90.00000  90.00000  90.00000    174.167934

 COORDINATES OF THE EQUIVALENT ATOMS (FRACTIONAL UNITS)

 N. ATOM EQUIV AT. N.          X                  Y                  Z

   1   1   1   27 CO    4.95040000000E-01 -2.59090000000E-01  0.00000000000E+00
   2   1   2   27 CO   -4.95040000000E-01  2.59090000000E-01 -5.00000000000E-01
   3   1   3   27 CO    4.96000000000E-03 -2.59090000000E-01 -5.00000000000E-01
   4   1   4   27 CO   -4.96000000000E-03  2.59090000000E-01  0.00000000000E+00

   5   2   1   33 AS    1.18850000000E-01  1.30650000000E-01 -3.83320000000E-01
   6   2   2   33 AS   -1.18850000000E-01 -1.30650000000E-01  1.16680000000E-01
   7   2   3   33 AS    3.81150000000E-01  1.30650000000E-01  1.16680000000E-01
   8   2   4   33 AS   -3.81150000000E-01 -1.30650000000E-01 -3.83320000000E-01

   9   3   1   16 S    -1.17340000000E-01  3.68710000000E-01  3.79960000000E-01
  10   3   2   16 S     1.17340000000E-01 -3.68710000000E-01 -1.20040000000E-01
  11   3   3   16 S    -3.82660000000E-01  3.68710000000E-01 -1.20040000000E-01
  12   3   4   16 S     3.82660000000E-01 -3.68710000000E-01  3.79960000000E-01

 NUMBER OF SYMMETRY OPERATORS         :    4
 *******************************************************************************
 * GEOMETRY EDITING - INPUT COORDINATES ARE GIVEN IN ANGSTROM         
 *******************************************************************************

 GEOMETRY NOW FULLY CONSISTENT WITH THE GROUP

 FRQFRQFRQFRQFRQFRQFRQFRQFRQFRQFRQFRQFRQFRQFRQFRQFRQFRQFRQFRQFRQFRQFRQFRQFRQFRQ

                       FREQUENCY CALCULATION

 OPTIMIZATION PERFORMED BEFORE FREQUENCIES CALCULATION
 *******************************************************************************
 INFORMATION **** NEW DEFAULT **** FINALRUN 4 FOR GEOMETRY OPTIMIZATIONS
 INFORMATION **** NEW DEFAULT **** OPTGEOM OPTIMIZES ATOMIC COORDINATES ONLY
 INFORMATION **** NEW DEFAULT **** TOL. ON ATOMIC DISP TO REDEFINE REF. GEOMETRY: 0.8 Angs
 INFORMATION **** NEW DEFAULT **** N POINTS TO REDEFINE REF. GEOMETRY: N OF OPT DEGS OF FREEDOM
 INFORMATION **** NEW DEFAULT **** TOL. ON ENERGY TO REDEFINE REF. GEOMETRY: 10**-3*(5*N. ATOMS)
 INFORMATION **** FULLOPTG **** FULL OPTIMIZATION (ATOMS AND CELL PARAMETERS)

 IMPORTANT INFORMATION:
 THE COORDINATE SYSTEM ADOPTED IN THE OPTIMIZATION IS NOT IN
 GENERAL HOMOGENEOUS UNITS. FOR THIS REASON THE GRADIENT AND 
 HESSIAN MATRIX IN TERMS OF THIS SYSTEM ARE GIVEN WITHOUT
 UNITS. FOR MORE DETAILS SEE THE MANUAL.

 *******************************************************************************
 COMBINED CELL/ATOM OPTIMIZATION CONTROL

 INITIAL TRUST RADIUS         0.50000 MAXIMUM TRUST RADIUS               0.50000
 MAXIMUM GRADIENT COMPONENT   0.00005 MAXIMUM DISPLACEMENT COMPONENT     0.00018
 R.M.S. OF GRADIENT COMPONENT 0.00003 R.M.S. OF DISPLACEMENT COMPONENTS  0.00012
 THRESHOLD ON ENERGY CHANGE 0.100E-06 EXTRAPOLATING POLYNOMIAL ORDER           2
 MAXIMUM ALLOWED NUMBER OF STEPS   -1 SORTING OF ENERGY POINTS:               NO
 ANALYTICAL  GRADIENT                 HESSIAN UPDATING                      BFGS
 STEP SIZE NUMERICAL GRADIENT 0.00100
 INITIAL HESSIAN MATRIX: SCHLEGEL MODEL 2
 *******************************************************************************

 INFORMATION **** INPFREQ **** IR INTENSITIES EVALUATED THROUGH CPHF APPROACH
 INFORMATION **** INPFREQ **** NEW DEFAULT - IMPOSING ECKART CONDITIONS TO THE HESSIAN

 GCALCO - MAX INDICES DIRECT LATTICE VECTOR    15    14    15
 NO.OF VECTORS CREATED 6999 STARS 1048 RMAX   125.26671 BOHR

 GEOMETRY FOR WAVE FUNCTION - DIMENSIONALITY OF THE SYSTEM    3
 (NON PERIODIC DIRECTION: LATTICE PARAMETER FORMALLY SET TO 500)
 *******************************************************************************
 LATTICE PARAMETERS (ANGSTROMS AND DEGREES) - BOHR = 0.5291772083 ANGSTROM
 PRIMITIVE CELL - CENTRING CODE 1/0 VOLUME=   174.167934 - DENSITY  6.324 g/cm^3
         A              B              C           ALPHA      BETA       GAMMA 
     5.58330000     5.58920000     5.58120000    90.000000  90.000000  90.000000
 *******************************************************************************
 ATOMS IN THE ASYMMETRIC UNIT    3 - ATOMS IN THE UNIT CELL:   12
     ATOM                 X/A                 Y/B                 Z/C    
 *******************************************************************************
      1 T  27 CO    4.950400000000E-01 -2.590900000000E-01  0.000000000000E+00
      2 F  27 CO   -4.950400000000E-01  2.590900000000E-01 -5.000000000000E-01
      3 F  27 CO    4.960000000000E-03 -2.590900000000E-01 -5.000000000000E-01
      4 F  27 CO   -4.960000000000E-03  2.590900000000E-01  0.000000000000E+00
      5 T  33 AS    1.188500000000E-01  1.306500000000E-01 -3.833200000000E-01
      6 F  33 AS   -1.188500000000E-01 -1.306500000000E-01  1.166800000000E-01
      7 F  33 AS    3.811500000000E-01  1.306500000000E-01  1.166800000000E-01
      8 F  33 AS   -3.811500000000E-01 -1.306500000000E-01 -3.833200000000E-01
      9 T  16 S    -1.173400000000E-01  3.687100000000E-01  3.799600000000E-01
     10 F  16 S     1.173400000000E-01 -3.687100000000E-01 -1.200400000000E-01
     11 F  16 S    -3.826600000000E-01  3.687100000000E-01 -1.200400000000E-01
     12 F  16 S     3.826600000000E-01 -3.687100000000E-01  3.799600000000E-01

 T = ATOM BELONGING TO THE ASYMMETRIC UNIT

 ****    4 SYMMOPS - TRANSLATORS IN FRACTIONAL UNITS
 **** MATRICES AND TRANSLATORS IN THE CRYSTALLOGRAPHIC REFERENCE FRAME
   V INV                    ROTATION MATRICES                   TRANSLATORS
   1   1  1.00  0.00  0.00  0.00  1.00  0.00  0.00  0.00  1.00  0.00  0.00  0.00
   2   2 -1.00  0.00  0.00  0.00 -1.00  0.00  0.00  0.00  1.00  0.00  0.00  0.50
   3   3 -1.00  0.00  0.00  0.00  1.00  0.00  0.00  0.00  1.00  0.50  0.00  0.50
   4   4  1.00  0.00  0.00  0.00 -1.00  0.00  0.00  0.00  1.00  0.50  0.00  0.00

 DIRECT LATTICE VECTORS CARTESIAN COMPONENTS (ANGSTROM)
          X                    Y                    Z
   0.558330000000E+01   0.000000000000E+00   0.000000000000E+00
   0.000000000000E+00   0.558920000000E+01   0.000000000000E+00
   0.000000000000E+00   0.000000000000E+00   0.558120000000E+01


 CARTESIAN COORDINATES - PRIMITIVE CELL
 *******************************************************************************
 *      ATOM          X(ANGSTROM)         Y(ANGSTROM)         Z(ANGSTROM)
 *******************************************************************************
    1    27 CO    2.763956832000E+00 -1.448105828000E+00  0.000000000000E+00
    2    27 CO   -2.763956832000E+00  1.448105828000E+00  2.790600000000E+00
    3    27 CO    2.769316800000E-02 -1.448105828000E+00  2.790600000000E+00
    4    27 CO   -2.769316800000E-02  1.448105828000E+00  0.000000000000E+00
    5    33 AS    6.635752050000E-01  7.302289800000E-01 -2.139385584000E+00
    6    33 AS   -6.635752050000E-01 -7.302289800000E-01  6.512144160000E-01
    7    33 AS    2.128074795000E+00  7.302289800000E-01  6.512144160000E-01
    8    33 AS   -2.128074795000E+00 -7.302289800000E-01 -2.139385584000E+00
    9    16 S    -6.551444220000E-01  2.060793932000E+00  2.120632752000E+00
   10    16 S     6.551444220000E-01 -2.060793932000E+00 -6.699672480000E-01
   11    16 S    -2.136505578000E+00  2.060793932000E+00 -6.699672480000E-01
   12    16 S     2.136505578000E+00 -2.060793932000E+00  2.120632752000E+00

 *******************************************************************************
 LOCAL ATOMIC FUNCTIONS BASIS SET
 *******************************************************************************
   ATOM   X(AU)   Y(AU)   Z(AU)  N. TYPE  EXPONENT  S COEF   P COEF   D/F/G COEF
 *******************************************************************************
   1 CO   5.223  -2.737   0.000
                                  1 S  
                                         3.258E+05 2.257E-04 0.000E+00 0.000E+00
                                         4.884E+04 1.750E-03 0.000E+00 0.000E+00
                                         1.111E+04 9.100E-03 0.000E+00 0.000E+00
                                         3.146E+03 3.700E-02 0.000E+00 0.000E+00
                                         1.024E+03 1.204E-01 0.000E+00 0.000E+00
                                         3.680E+02 2.860E-01 0.000E+00 0.000E+00
                                         1.429E+02 4.091E-01 0.000E+00 0.000E+00
                                         5.648E+01 2.150E-01 0.000E+00 0.000E+00
                                  2 S  
                                         3.564E+02-2.477E-02 0.000E+00 0.000E+00
                                         1.103E+02-1.170E-01 0.000E+00 0.000E+00
                                         1.766E+01 5.522E-01 0.000E+00 0.000E+00
                                         7.506E+00 5.325E-01 0.000E+00 0.000E+00
                                  3 S  
                                         1.150E+01-2.294E-01 0.000E+00 0.000E+00
                                         1.908E+00 7.118E-01 0.000E+00 0.000E+00
                                  4 S  
                                         1.608E+00 1.000E+00 0.000E+00 0.000E+00
                                  5 S  
                                         7.956E-01 1.000E+00 0.000E+00 0.000E+00
                                  6 S  
                                         1.557E-01 1.000E+00 0.000E+00 0.000E+00
                           7-     9 P  
                                         1.731E+03 0.000E+00 2.391E-03 0.000E+00
                                         4.099E+02 0.000E+00 1.938E-02 0.000E+00
                                         1.315E+02 0.000E+00 9.091E-02 0.000E+00
                                         4.899E+01 0.000E+00 2.615E-01 0.000E+00
                                         1.954E+01 0.000E+00 4.216E-01 0.000E+00
                                         7.929E+00 0.000E+00 2.457E-01 0.000E+00
                          10-    12 P  
                                         3.108E+01 0.000E+00-2.944E-02 0.000E+00
                                         4.284E+00 0.000E+00 5.562E-01 0.000E+00
                                         1.702E+00 0.000E+00 9.677E-01 0.000E+00
                          13-    15 P  
                                         1.163E+00 0.000E+00 1.000E+00 0.000E+00
                          16-    18 P  
                                         5.019E-01 0.000E+00 1.000E+00 0.000E+00
                          19-    23 D  
                                         6.814E+01 0.000E+00 0.000E+00 1.198E-02
                                         1.969E+01 0.000E+00 0.000E+00 7.369E-02
                                         6.932E+00 0.000E+00 0.000E+00 2.309E-01
                                         2.603E+00 0.000E+00 0.000E+00 3.928E-01
                          24-    28 D  
                                         9.207E-01 0.000E+00 0.000E+00 1.000E+00
                          29-    33 D  
                                         2.922E-01 0.000E+00 0.000E+00 1.000E+00
                          34-    40 F  
                                         1.903E+00 0.000E+00 0.000E+00 1.000E+00
   2 CO  -5.223   2.737   5.273
   3 CO   0.052  -2.737   5.273
   4 CO  -0.052   2.737   0.000
   5 AS   1.254   1.380  -4.043
                                161 S  
                                         4.980E+05 2.274E-04 0.000E+00 0.000E+00
                                         7.466E+04 1.763E-03 0.000E+00 0.000E+00
                                         1.699E+04 9.173E-03 0.000E+00 0.000E+00
                                         4.810E+03 3.734E-02 0.000E+00 0.000E+00
                                         1.566E+03 1.220E-01 0.000E+00 0.000E+00
                                         5.632E+02 2.914E-01 0.000E+00 0.000E+00
                                         2.191E+02 4.233E-01 0.000E+00 0.000E+00
                                         8.687E+01 2.292E-01 0.000E+00 0.000E+00
                                162 S  
                                         5.382E+02-2.525E-02 0.000E+00 0.000E+00
                                         1.671E+02-1.192E-01 0.000E+00 0.000E+00
                                         2.761E+01 5.463E-01 0.000E+00 0.000E+00
                                         1.195E+01 5.300E-01 0.000E+00 0.000E+00
                                163 S  
                                         1.854E+01-2.348E-01 0.000E+00 0.000E+00
                                         3.202E+00 6.917E-01 0.000E+00 0.000E+00
                                164 S  
                                         1.788E+00 1.000E+00 0.000E+00 0.000E+00
                                165 S  
                                         5.961E-01 1.000E+00 0.000E+00 0.000E+00
                                166 S  
                                         2.163E-01 1.000E+00 0.000E+00 0.000E+00
                         167-   169 P  
                                         2.679E+03 0.000E+00 2.332E-03 0.000E+00
                                         6.346E+02 0.000E+00 1.904E-02 0.000E+00
                                         2.039E+02 0.000E+00 9.023E-02 0.000E+00
                                         7.632E+01 0.000E+00 2.617E-01 0.000E+00
                                         3.066E+01 0.000E+00 4.186E-01 0.000E+00
                                         1.251E+01 0.000E+00 2.345E-01 0.000E+00
                         170-   172 P  
                                         4.926E+01 0.000E+00-2.124E-02 0.000E+00
                                         7.727E+00 0.000E+00 3.047E-01 0.000E+00
                                         3.541E+00 0.000E+00 5.289E-01 0.000E+00
                                         1.699E+00 0.000E+00 3.727E-01 0.000E+00
                         173-   175 P  
                                         8.685E-01 0.000E+00 1.000E+00 0.000E+00
                         176-   178 P  
                                         4.173E-01 0.000E+00 1.000E+00 0.000E+00
                         179-   181 P  
                                         1.470E-01 0.000E+00 1.000E+00 0.000E+00
                         182-   186 D  
                                         1.353E+02 0.000E+00 0.000E+00 9.929E-03
                                         3.986E+01 0.000E+00 0.000E+00 6.657E-02
                                         1.445E+01 0.000E+00 0.000E+00 2.228E-01
                                         5.643E+00 0.000E+00 0.000E+00 4.031E-01
                                         2.167E+00 0.000E+00 0.000E+00 4.167E-01
                         187-   191 D  
                                         1.898E+00 0.000E+00 0.000E+00 1.000E+00
                         192-   196 D  
                                         9.488E-01 0.000E+00 0.000E+00 1.000E+00
                         197-   201 D  
                                         4.744E-01 0.000E+00 0.000E+00 1.000E+00
   6 AS  -1.254  -1.380   1.231
   7 AS   4.021   1.380   1.231
   8 AS  -4.021  -1.380  -4.043
   9 S   -1.238   3.894   4.007
                                325 S  
                                         6.070E+04 5.470E-04 0.000E+00 0.000E+00
                                         9.103E+03 4.230E-03 0.000E+00 0.000E+00
                                         2.071E+03 2.175E-02 0.000E+00 0.000E+00
                                         5.860E+02 8.510E-02 0.000E+00 0.000E+00
                                         1.906E+02 2.480E-01 0.000E+00 0.000E+00
                                         6.763E+01 4.670E-01 0.000E+00 0.000E+00
                                         2.513E+01 3.643E-01 0.000E+00 0.000E+00
                                326 S  
                                         1.126E+02 2.167E-02 0.000E+00 0.000E+00
                                         3.480E+01 9.360E-02 0.000E+00 0.000E+00
                                         6.512E+00-2.607E-01 0.000E+00 0.000E+00
                                327 S  
                                         3.240E+00 1.284E+00 0.000E+00 0.000E+00
                                         1.548E+00 6.604E-01 0.000E+00 0.000E+00
                                328 S  
                                         4.487E-01 1.000E+00 0.000E+00 0.000E+00
                                329 S  
                                         1.553E-01 1.000E+00 0.000E+00 0.000E+00
                         330-   332 P  
                                         5.644E+02 0.000E+00 2.480E-03 0.000E+00
                                         1.334E+02 0.000E+00 1.968E-02 0.000E+00
                                         4.247E+01 0.000E+00 8.998E-02 0.000E+00
                                         1.562E+01 0.000E+00 2.571E-01 0.000E+00
                                         6.109E+00 0.000E+00 4.352E-01 0.000E+00
                         333-   335 P  
                                         2.036E+00 0.000E+00 1.000E+00 0.000E+00
                         336-   338 P  
                                         4.338E-01 0.000E+00 1.000E+00 0.000E+00
                         339-   341 P  
                                         1.305E-01 0.000E+00 1.000E+00 0.000E+00
                         342-   346 D  
                                         4.107E-01 0.000E+00 0.000E+00 1.000E+00
  10 S    1.238  -3.894  -1.266
  11 S   -4.037   3.894  -1.266
  12 S    4.037  -3.894   4.007
 INFORMATION **** SET_MPP **** PCRYSTAL CALCULATION
 INFORMATION **** READM2 **** NEW DEFAULT: FOCK/KS MATRIX MIXING SET TO 30 %
 INFORMATION **** READM2 **** NEW DEFAULT: FULL DIRECT SCF MODE
 INFORMATION **** READM2 **** NEW DEFAULT: COULOMB BIPOLAR BUFFER SET TO 32 Mb
 INFORMATION **** READM2 **** NEW DEFAULT: EXCHANGE BIPOLAR BUFFER SET TO 32 Mb

 *******************************************************************************
 NEW DEFAULT: DFT INTEGRATION GRID INCREASED TO XLGRID
 NEW DEFAULT: DIIS ACCELERATOR ACTIVE
 USE KEYWORD NODIIS TO TURN IT OFF
 *******************************************************************************

 INFORMATION **** RDDFTP **** MAX N. OF POINTS ALLOWED IN A BATCH FOR NUMERICAL INTEGRATION         200
 INFORMATION **** TOLINTEG **** COULOMB AND EXCHANGE SERIES TOLERANCES MODIFIED
 INFORMATION **** TOLDEE **** SCF TOL ON TOTAL ENERGY SET TO          11
 INFORMATION **** EXCHSIZE **** EXCHANGE BIPOLAR BUFFER SIZE SET TO    12012489
 INFORMATION **** MAXCYCLE **** MAX NUMBER OF SCF CYCLES SET TO         150
 *******************************************************************************
 N. OF ATOMS PER CELL        12  COULOMB OVERLAP TOL         (T1) 10**   -7
 NUMBER OF SHELLS           156  COULOMB PENETRATION TOL     (T2) 10**   -7
 NUMBER OF AO               412  EXCHANGE OVERLAP TOL        (T3) 10**   -7
 N. OF ELECTRONS PER CELL   304  EXCHANGE PSEUDO OVP (F(G))  (T4) 10**   -9
 CORE ELECTRONS PER CELL    224  EXCHANGE PSEUDO OVP (P(G))  (T5) 10**  -30
 N. OF SYMMETRY OPERATORS     4  POLE ORDER IN MONO ZONE                  4
 *******************************************************************************
 TYPE OF CALCULATION :  UNRESTRICTED OPEN SHELL
 KOHN-SHAM HAMILTONIAN

 (EXCHANGE)[CORRELATION] FUNCTIONAL:(PERDEW-BURKE-ERNZERHOF)[PERDEW-BURKE-ERNZERHOF]


 HYBRID EXCHANGE - PERCENTAGE OF FOCK EXCHANGE    25.0000

 SPIN POLARIZED DFT SELECTED

 CAPPA:IS1  8;IS2  8;IS3  8; K PTS MONK NET 125; SYMMOPS:K SPACE   8;G SPACE   4

 *******************************************************************************
 MAX NUMBER OF SCF CYCLES     150  CONVERGENCE ON DELTAP        10**-21
 WEIGHT OF F(I) IN F(I+1)      30% CONVERGENCE ON ENERGY        10**-11
 SHRINK. FACT.(MONKH.)    8  8  8  NUMBER OF K POINTS IN THE IBZ    125
 SHRINKING FACTOR(GILAT NET)    8  NUMBER OF K POINTS(GILAT NET)    125
 *******************************************************************************
 *** K POINTS COORDINATES (OBLIQUE COORDINATES IN UNITS OF IS =  8)
   1-R(  0  0  0)   2-C(  1  0  0)   3-C(  2  0  0)   4-C(  3  0  0)
   5-R(  4  0  0)   6-C(  0  1  0)   7-C(  1  1  0)   8-C(  2  1  0)
   9-C(  3  1  0)  10-C(  4  1  0)  11-C(  0  2  0)  12-C(  1  2  0)
  13-C(  2  2  0)  14-C(  3  2  0)  15-C(  4  2  0)  16-C(  0  3  0)
  17-C(  1  3  0)  18-C(  2  3  0)  19-C(  3  3  0)  20-C(  4  3  0)
  21-R(  0  4  0)  22-C(  1  4  0)  23-C(  2  4  0)  24-C(  3  4  0)
  25-R(  4  4  0)  26-C(  0  0  1)  27-C(  1  0  1)  28-C(  2  0  1)
  29-C(  3  0  1)  30-C(  4  0  1)  31-C(  0  1  1)  32-C(  1  1  1)
  33-C(  2  1  1)  34-C(  3  1  1)  35-C(  4  1  1)  36-C(  0  2  1)
  37-C(  1  2  1)  38-C(  2  2  1)  39-C(  3  2  1)  40-C(  4  2  1)
  41-C(  0  3  1)  42-C(  1  3  1)  43-C(  2  3  1)  44-C(  3  3  1)
  45-C(  4  3  1)  46-C(  0  4  1)  47-C(  1  4  1)  48-C(  2  4  1)
  49-C(  3  4  1)  50-C(  4  4  1)  51-C(  0  0  2)  52-C(  1  0  2)
  53-C(  2  0  2)  54-C(  3  0  2)  55-C(  4  0  2)  56-C(  0  1  2)
  57-C(  1  1  2)  58-C(  2  1  2)  59-C(  3  1  2)  60-C(  4  1  2)
  61-C(  0  2  2)  62-C(  1  2  2)  63-C(  2  2  2)  64-C(  3  2  2)
  65-C(  4  2  2)  66-C(  0  3  2)  67-C(  1  3  2)  68-C(  2  3  2)
  69-C(  3  3  2)  70-C(  4  3  2)  71-C(  0  4  2)  72-C(  1  4  2)
  73-C(  2  4  2)  74-C(  3  4  2)  75-C(  4  4  2)  76-C(  0  0  3)
  77-C(  1  0  3)  78-C(  2  0  3)  79-C(  3  0  3)  80-C(  4  0  3)
  81-C(  0  1  3)  82-C(  1  1  3)  83-C(  2  1  3)  84-C(  3  1  3)
  85-C(  4  1  3)  86-C(  0  2  3)  87-C(  1  2  3)  88-C(  2  2  3)
  89-C(  3  2  3)  90-C(  4  2  3)  91-C(  0  3  3)  92-C(  1  3  3)
  93-C(  2  3  3)  94-C(  3  3  3)  95-C(  4  3  3)  96-C(  0  4  3)
  97-C(  1  4  3)  98-C(  2  4  3)  99-C(  3  4  3) 100-C(  4  4  3)
 101-R(  0  0  4) 102-C(  1  0  4) 103-C(  2  0  4) 104-C(  3  0  4)
 105-R(  4  0  4) 106-C(  0  1  4) 107-C(  1  1  4) 108-C(  2  1  4)
 109-C(  3  1  4) 110-C(  4  1  4) 111-C(  0  2  4) 112-C(  1  2  4)
 113-C(  2  2  4) 114-C(  3  2  4) 115-C(  4  2  4) 116-C(  0  3  4)
 117-C(  1  3  4) 118-C(  2  3  4) 119-C(  3  3  4) 120-C(  4  3  4)
 121-R(  0  4  4) 122-C(  1  4  4) 123-C(  2  4  4) 124-C(  3  4  4)
 125-R(  4  4  4)

 DIRECT LATTICE VECTORS COMPON. (A.U.)     RECIP. LATTICE VECTORS COMPON. (A.U.) 
        X            Y            Z              X            Y            Z
   10.5509079    0.0000000    0.0000000      0.5955113    0.0000000    0.0000000
    0.0000000   10.5620573    0.0000000      0.0000000    0.5948827    0.0000000
    0.0000000    0.0000000   10.5469395      0.0000000    0.0000000    0.5957354

 DISK SPACE FOR EIGENVECTORS (FTN 10)    41078048 REALS

 SYMMETRY ADAPTION OF THE BLOCH FUNCTIONS ENABLED
 TTTTTTTTTTTTTTTTTTTTTTTTTTTTTT gordsh1     TELAPSE        7.11 TCPU        5.18

 MATRIX SIZE: P(G) 2363916, F(G)  191072, P(G) IRR  306376, F(G) IRR   49297
 MAX G-VECTOR INDEX FOR 1- AND 2-ELECTRON INTEGRALS 295

 TTTTTTTTTTTTTTTTTTTTTTTTTTTTTT INPUT       TELAPSE        7.12 TCPU        5.19

 NEIGHBORS OF THE NON-EQUIVALENT ATOMS

 N = NUMBER OF NEIGHBORS AT DISTANCE R
    ATOM  N     R/ANG      R/AU   NEIGHBORS (ATOM LABELS AND CELL INDICES)
   1 CO   1     2.2897     4.3269   11 S    1-1 0
   1 CO   1     2.2948     4.3366   12 S    0 0 0
   1 CO   1     2.2959     4.3387   10 S    0 0 0
   1 CO   1     2.3601     4.4600    8 AS   1 0 0
   1 CO   1     2.3608     4.4613    7 AS   0 0 0
   1 CO   1     2.3636     4.4666    6 AS   1 0 0

   5 AS   1     2.2924     4.3319    9 S    0 0-1
   5 AS   1     2.3601     4.4600    4 CO   0 0 0
   5 AS   1     2.3608     4.4613    3 CO   0 0-1
   5 AS   1     2.3636     4.4666    2 CO   1 0-1
   5 AS   2     3.1506     5.9538    8 AS   0 0 0    8 AS   1 0 0
   5 AS   2     3.1515     5.9555    7 AS   0 0 0    7 AS   0 0-1

   9 S    1     2.2897     4.3269    3 CO   0 1 0
   9 S    1     2.2924     4.3319    5 AS   0 0 1
   9 S    1     2.2948     4.3366    4 CO   0 0 0
   9 S    1     2.2959     4.3387    2 CO   0 0 0
   9 S    2     3.1539     5.9600   12 S    0 1 0   12 S   -1 1 0
   9 S    1     3.1542     5.9606    6 AS   0 0 0


 SYMMETRY ALLOWED ELASTIC DISTORTION 1
  0.5773503  0.0000000  0.0000000
  0.0000000  0.5773503  0.0000000
  0.0000000  0.0000000  0.5773503

 SYMMETRY ALLOWED ELASTIC DISTORTION 2
  0.8164966  0.0000000  0.0000000
  0.0000000 -0.4082483  0.0000000
  0.0000000  0.0000000 -0.4082483

 SYMMETRY ALLOWED ELASTIC DISTORTION 3
  0.0000000  0.0000000  0.0000000
  0.0000000  0.7071068  0.0000000
  0.0000000  0.0000000 -0.7071068

 SYMMETRY ALLOWED INTERNAL DEGREE(S) OF FREEDOM:   8
 TTTTTTTTTTTTTTTTTTTTTTTTTTTTTT SYMM        TELAPSE        7.23 TCPU        5.29
 TTTTTTTTTTTTTTTTTTTTTTTTTTTTTT INT_SCREEN  TELAPSE        7.24 TCPU        5.30

 *******************************************************************************
 *                             OPTIMIZATION STARTS                             *
 *******************************************************************************
 RECLASIFICATION OF INDICES FOR INTEGRAL CALC ACCORDING TO DIFFERENT CRITERIA:
           FIXDELTE                  FIXDELTX              FIXDELTN
          0.10000000               0.80000000                 11
 *******************************************************************************

 *******************************************************************************
 COORDINATE AND CELL OPTIMIZATION - POINT    1

 DFT PARAMETERS

     ATOM       ELECTRONS   NET CHARGE   R(ANGSTROM)
   1  27  CO     27.0000      0.0000     1.25000000
   5  33  AS     33.0000      0.0000     1.21000000
   9  16  S      16.0000      0.0000     1.04000000

 SIZE OF GRID=     136351
 TTTTTTTTTTTTTTTTTTTTTTTTTTTTTT MAKE_GRID2  TELAPSE       13.73 TCPU       11.75
 BECKE WEIGHT FUNCTION
 RADSAFE =     2.00
 TOLERANCES - DENSITY:10**- 6; POTENTIAL:10**- 9; GRID WGT:10**-14

 RADIAL INTEGRATION  - INTERVALS (POINTS,UPPER LIMIT):            1( 99,  4.0*R)

 ANGULAR INTEGRATION - INTERVALS (ACCURACY LEVEL [N. POINTS] UPPER LIMIT):
  1(  6[ 146]   0.2)  2( 11[ 302]   0.5)  3( 14[ 590]   0.9)  4( 18[1454]   3.5)
  5( 14[ 590]9999.0)
 TTTTTTTTTTTTTTTTTTTTTTTTTTTTTT INT_CALC    TELAPSE       13.75 TCPU       11.77

 *******************************************************************************
 ICSD_CollCode69129.cif                                                          
 CRYSTAL - SCF - TYPE OF CALCULATION :  UNRESTRICTED OPEN SHELL
 *******************************************************************************

 CAPPA:IS1  8;IS2  8;IS3  8; K PTS MONK NET 125; SYMMOPS:K SPACE   8;G SPACE   4

 TTTTTTTTTTTTTTTTTTTTTTTTTTTTTT SDIK        TELAPSE       13.87 TCPU       11.88

 AAAAAAAAAAAAAAAAAAAAAAAAAAAAAAAAAAAAAAAAAAAAAAAAAAAAAAAAAAAAAAAAAAAAAAAAAAAAAAA
         ATOMIC WAVEFUNCTION(S)


 NUCLEAR CHARGE 27.0  SYMMETRY SPECIES            S    P    D
 N. ELECTRONS   27.0  NUMBER OF PRIMITIVE GTOS   17   11    6
                      NUMBER OF CONTRACTED GTOS   6    4    3
                      NUMBER OF CLOSED SHELLS     4    2    0
                      OPEN SHELL OCCUPATION       0    0    7

  ZNUC  SCFIT    TOTAL HF ENERGY   KINETIC ENERGY   VIRIAL THEOREM             ACCURACY
  27.0    23    -1.381263068E+03  1.381163841E+03 -2.000071843E+00  4.9E-06

 NUCLEAR CHARGE 33.0  SYMMETRY SPECIES            S    P    D
 N. ELECTRONS   33.0  NUMBER OF PRIMITIVE GTOS   17   13    8
                      NUMBER OF CONTRACTED GTOS   6    5    4
                      NUMBER OF CLOSED SHELLS     4    2    1
                      OPEN SHELL OCCUPATION       0    3    0

  ZNUC  SCFIT    TOTAL HF ENERGY   KINETIC ENERGY   VIRIAL THEOREM             ACCURACY
  33.0    17    -2.234164428E+03  2.233930354E+03 -2.000104781E+00  4.0E-06

 NUCLEAR CHARGE 16.0  SYMMETRY SPECIES            S    P
 N. ELECTRONS   16.0  NUMBER OF PRIMITIVE GTOS   14    8
                      NUMBER OF CONTRACTED GTOS   5    4
                      NUMBER OF CLOSED SHELLS     3    1
                      OPEN SHELL OCCUPATION       0    4

  ZNUC  SCFIT    TOTAL HF ENERGY   KINETIC ENERGY   VIRIAL THEOREM             ACCURACY
  16.0    11    -3.974118762E+02  3.986854297E+02 -1.996805618E+00  4.0E-06

 AAAAAAAAAAAAAAAAAAAAAAAAAAAAAAAAAAAAAAAAAAAAAAAAAAAAAAAAAAAAAAAAAAAAAAAAAAAAAAA

 TTTTTTTTTTTTTTTTTTTTTTTTTTTTTT MOQGAD      TELAPSE       13.88 TCPU       11.89
 TTTTTTTTTTTTTTTTTTTTTTTTTTTTTT SHELLXN     TELAPSE       19.49 TCPU       17.42
 TTTTTTTTTTTTTTTTTTTTTTTTTTTTTT MONMO3      TELAPSE       19.50 TCPU       17.43
 NUMERICALLY INTEGRATED DENSITY    151.9999915139    151.9999915139
 TTTTTTTTTTTTTTTTTTTTTTTTTTTTTT NUMDFT      TELAPSE       19.84 TCPU       17.76
 CYC   0 ETOT(AU) -1.606688486910E+04 DETOT -1.61E+04 tst  0.00E+00 PX  1.00E+00
 TTTTTTTTTTTTTTTTTTTTTTTTTTTTTT DIIS        TELAPSE       19.86 TCPU       17.78
 TTTTTTTTTTTTTTTTTTTTTTTTTTTTTT FDIK        TELAPSE       20.18 TCPU       18.10

    ALPHA      ELECTRONS
 INSULATING STATE
 TOP OF VALENCE BANDS -    BAND    152; K   19; EIG -1.7609685E-01 AU
 TOP OF VALENCE BANDS -    BAND    152; K    1; EIG -2.0453549E-01 AU
 BOTTOM OF VIRTUAL BANDS - BAND    153; K    1; EIG -1.4287833E-01 AU
 INDIRECT ENERGY BAND GAP:   0.9039 eV

    BETA       ELECTRONS
 INSULATING STATE
 TOP OF VALENCE BANDS -    BAND    152; K   19; EIG -1.7609685E-01 AU
 TOP OF VALENCE BANDS -    BAND    152; K    1; EIG -2.0453549E-01 AU
 BOTTOM OF VIRTUAL BANDS - BAND    153; K    1; EIG -1.4287833E-01 AU
 INDIRECT ENERGY BAND GAP:   0.9039 eV
 TTTTTTTTTTTTTTTTTTTTTTTTTTTTTT PDIG        TELAPSE       20.39 TCPU       18.30
 TTTTTTTTTTTTTTTTTTTTTTTTTTTTTT MOQGAD      TELAPSE       20.40 TCPU       18.30
 TTTTTTTTTTTTTTTTTTTTTTTTTTTTTT SHELLXN     TELAPSE       26.37 TCPU       24.18
 TTTTTTTTTTTTTTTTTTTTTTTTTTTTTT MONMO3      TELAPSE       26.39 TCPU       24.19
 NUMERICALLY INTEGRATED DENSITY    151.9999915909    151.9999915909
 TTTTTTTTTTTTTTTTTTTTTTTTTTTTTT NUMDFT      TELAPSE       26.70 TCPU       24.51
 CYC   1 ETOT(AU) -1.606501168463E+04 DETOT  1.87E+00 tst  0.00E+00 PX  1.00E+00
 TTTTTTTTTTTTTTTTTTTTTTTTTTTTTT DIIS        TELAPSE       26.72 TCPU       24.53
 DIIS TEST: 0.74483E+00 AT SCF   CYCLE   1 - MIX   30 %
 TTTTTTTTTTTTTTTTTTTTTTTTTTTTTT FDIK        TELAPSE       27.06 TCPU       24.85

    ALPHA      ELECTRONS
 INSULATING STATE
 TOP OF VALENCE BANDS -    BAND    152; K   19; EIG -1.6281470E-01 AU
 TOP OF VALENCE BANDS -    BAND    152; K    1; EIG -1.8890757E-01 AU
 BOTTOM OF VIRTUAL BANDS - BAND    153; K    2; EIG -9.1261728E-02 AU
 INDIRECT ENERGY BAND GAP:   1.9471 eV
 BOTTOM OF VIRTUAL BANDS - BAND    153; K    1; EIG -9.0222398E-02 AU

    BETA       ELECTRONS
 INSULATING STATE
 TOP OF VALENCE BANDS -    BAND    152; K   19; EIG -1.6281470E-01 AU
 TOP OF VALENCE BANDS -    BAND    152; K    1; EIG -1.8890757E-01 AU
 BOTTOM OF VIRTUAL BANDS - BAND    153; K    2; EIG -9.1261728E-02 AU
 INDIRECT ENERGY BAND GAP:   1.9471 eV
 BOTTOM OF VIRTUAL BANDS - BAND    153; K    1; EIG -9.0222398E-02 AU
 TTTTTTTTTTTTTTTTTTTTTTTTTTTTTT PDIG        TELAPSE       27.26 TCPU       25.06
 TTTTTTTTTTTTTTTTTTTTTTTTTTTTTT MOQGAD      TELAPSE       27.27 TCPU       25.06
 TTTTTTTTTTTTTTTTTTTTTTTTTTTTTT SHELLXN     TELAPSE       33.12 TCPU       30.83
 TTTTTTTTTTTTTTTTTTTTTTTTTTTTTT MONMO3      TELAPSE       33.14 TCPU       30.84
 NUMERICALLY INTEGRATED DENSITY    151.9999916327    151.9999916327
 TTTTTTTTTTTTTTTTTTTTTTTTTTTTTT NUMDFT      TELAPSE       33.45 TCPU       31.15
 CYC   2 ETOT(AU) -1.606487177449E+04 DETOT  1.40E-01 tst  4.34E-03 PX  1.67E-01
 TTTTTTTTTTTTTTTTTTTTTTTTTTTTTT DIIS        TELAPSE       33.52 TCPU       31.23
 DIIS TEST: 0.34734E+01 AT SCF   CYCLE   2 - DIIS ACTIVE - HISTORY:     2 CYCLES
 TTTTTTTTTTTTTTTTTTTTTTTTTTTTTT FDIK        TELAPSE       33.86 TCPU       31.56

    ALPHA      ELECTRONS
 INSULATING STATE
 TOP OF VALENCE BANDS -    BAND    152; K   19; EIG -1.7310596E-01 AU
 TOP OF VALENCE BANDS -    BAND    152; K    1; EIG -2.0934461E-01 AU
 BOTTOM OF VIRTUAL BANDS - BAND    153; K    1; EIG -1.1606948E-01 AU
 INDIRECT ENERGY BAND GAP:   1.5520 eV

    BETA       ELECTRONS
 INSULATING STATE
 TOP OF VALENCE BANDS -    BAND    152; K   19; EIG -1.7310596E-01 AU
 TOP OF VALENCE BANDS -    BAND    152; K    1; EIG -2.0934461E-01 AU
 BOTTOM OF VIRTUAL BANDS - BAND    153; K    1; EIG -1.1606948E-01 AU
 INDIRECT ENERGY BAND GAP:   1.5520 eV
 TTTTTTTTTTTTTTTTTTTTTTTTTTTTTT PDIG        TELAPSE       34.07 TCPU       31.76
 TTTTTTTTTTTTTTTTTTTTTTTTTTTTTT MOQGAD      TELAPSE       34.07 TCPU       31.77
 TTTTTTTTTTTTTTTTTTTTTTTTTTTTTT SHELLXN     TELAPSE       40.09 TCPU       37.70
 TTTTTTTTTTTTTTTTTTTTTTTTTTTTTT MONMO3      TELAPSE       40.10 TCPU       37.72
 NUMERICALLY INTEGRATED DENSITY    151.9999917839    151.9999917839
 TTTTTTTTTTTTTTTTTTTTTTTTTTTTTT NUMDFT      TELAPSE       40.42 TCPU       38.03
 CYC   3 ETOT(AU) -1.606504022566E+04 DETOT -1.68E-01 tst  1.92E-03 PX  9.23E-02
 TTTTTTTTTTTTTTTTTTTTTTTTTTTTTT DIIS        TELAPSE       40.44 TCPU       38.05
 DIIS TEST: 0.15818E+01 AT SCF   CYCLE   3 - DIIS ACTIVE - HISTORY:     3 CYCLES
 TTTTTTTTTTTTTTTTTTTTTTTTTTTTTT FDIK        TELAPSE       40.77 TCPU       38.38

    ALPHA      ELECTRONS
 INSULATING STATE
 TOP OF VALENCE BANDS -    BAND    152; K   19; EIG -1.6774339E-01 AU
 TOP OF VALENCE BANDS -    BAND    152; K    1; EIG -2.0209618E-01 AU
 BOTTOM OF VIRTUAL BANDS - BAND    153; K    1; EIG -8.8463295E-02 AU
 INDIRECT ENERGY BAND GAP:   2.1573 eV

    BETA       ELECTRONS
 INSULATING STATE
 TOP OF VALENCE BANDS -    BAND    152; K   19; EIG -1.6774339E-01 AU
 TOP OF VALENCE BANDS -    BAND    152; K    1; EIG -2.0209618E-01 AU
 BOTTOM OF VIRTUAL BANDS - BAND    153; K    1; EIG -8.8463295E-02 AU
 INDIRECT ENERGY BAND GAP:   2.1573 eV
 TTTTTTTTTTTTTTTTTTTTTTTTTTTTTT PDIG        TELAPSE       40.98 TCPU       38.59
 TTTTTTTTTTTTTTTTTTTTTTTTTTTTTT MOQGAD      TELAPSE       40.99 TCPU       38.59
 TTTTTTTTTTTTTTTTTTTTTTTTTTTTTT SHELLXN     TELAPSE       46.84 TCPU       44.40
 TTTTTTTTTTTTTTTTTTTTTTTTTTTTTT MONMO3      TELAPSE       46.86 TCPU       44.41
 NUMERICALLY INTEGRATED DENSITY    151.9999919452    151.9999919452
 TTTTTTTTTTTTTTTTTTTTTTTTTTTTTT NUMDFT      TELAPSE       47.17 TCPU       44.72
 CYC   4 ETOT(AU) -1.606514417396E+04 DETOT -1.04E-01 tst  1.19E-03 PX  5.59E-02
 TTTTTTTTTTTTTTTTTTTTTTTTTTTTTT DIIS        TELAPSE       47.19 TCPU       44.74
 DIIS TEST: 0.16980E+00 AT SCF   CYCLE   4 - DIIS ACTIVE - HISTORY:     4 CYCLES
 TTTTTTTTTTTTTTTTTTTTTTTTTTTTTT FDIK        TELAPSE       47.51 TCPU       45.06

    ALPHA      ELECTRONS
 INSULATING STATE
 TOP OF VALENCE BANDS -    BAND    152; K   19; EIG -1.6825289E-01 AU
 TOP OF VALENCE BANDS -    BAND    152; K    1; EIG -2.0154580E-01 AU
 BOTTOM OF VIRTUAL BANDS - BAND    153; K    1; EIG -8.9242342E-02 AU
 INDIRECT ENERGY BAND GAP:   2.1500 eV

    BETA       ELECTRONS
 INSULATING STATE
 TOP OF VALENCE BANDS -    BAND    152; K   19; EIG -1.6825289E-01 AU
 TOP OF VALENCE BANDS -    BAND    152; K    1; EIG -2.0154580E-01 AU
 BOTTOM OF VIRTUAL BANDS - BAND    153; K    1; EIG -8.9242342E-02 AU
 INDIRECT ENERGY BAND GAP:   2.1500 eV
 TTTTTTTTTTTTTTTTTTTTTTTTTTTTTT PDIG        TELAPSE       47.72 TCPU       45.26
 TTTTTTTTTTTTTTTTTTTTTTTTTTTTTT MOQGAD      TELAPSE       47.73 TCPU       45.27
 TTTTTTTTTTTTTTTTTTTTTTTTTTTTTT SHELLXN     TELAPSE       53.65 TCPU       51.04
 TTTTTTTTTTTTTTTTTTTTTTTTTTTTTT MONMO3      TELAPSE       53.66 TCPU       51.05
 NUMERICALLY INTEGRATED DENSITY    151.9999919465    151.9999919465
 TTTTTTTTTTTTTTTTTTTTTTTTTTTTTT NUMDFT      TELAPSE       53.97 TCPU       51.36
 CYC   5 ETOT(AU) -1.606515777633E+04 DETOT -1.36E-02 tst  1.12E-04 PX  1.35E-02
 TTTTTTTTTTTTTTTTTTTTTTTTTTTTTT DIIS        TELAPSE       53.99 TCPU       51.38
 DIIS TEST: 0.97031E-02 AT SCF   CYCLE   5 - DIIS ACTIVE - HISTORY:     5 CYCLES
 TTTTTTTTTTTTTTTTTTTTTTTTTTTTTT FDIK        TELAPSE       54.30 TCPU       51.68

    ALPHA      ELECTRONS
 INSULATING STATE
 TOP OF VALENCE BANDS -    BAND    152; K   19; EIG -1.6870189E-01 AU
 TOP OF VALENCE BANDS -    BAND    152; K    1; EIG -2.0088222E-01 AU
 BOTTOM OF VIRTUAL BANDS - BAND    153; K    1; EIG -8.7316085E-02 AU
 INDIRECT ENERGY BAND GAP:   2.2146 eV

    BETA       ELECTRONS
 INSULATING STATE
 TOP OF VALENCE BANDS -    BAND    152; K   19; EIG -1.6870189E-01 AU
 TOP OF VALENCE BANDS -    BAND    152; K    1; EIG -2.0088222E-01 AU
 BOTTOM OF VIRTUAL BANDS - BAND    153; K    1; EIG -8.7316085E-02 AU
 INDIRECT ENERGY BAND GAP:   2.2146 eV
 TTTTTTTTTTTTTTTTTTTTTTTTTTTTTT PDIG        TELAPSE       54.52 TCPU       51.90
 TTTTTTTTTTTTTTTTTTTTTTTTTTTTTT MOQGAD      TELAPSE       54.53 TCPU       51.91
 TTTTTTTTTTTTTTTTTTTTTTTTTTTTTT SHELLXN     TELAPSE       60.38 TCPU       57.71
 TTTTTTTTTTTTTTTTTTTTTTTTTTTTTT MONMO3      TELAPSE       60.39 TCPU       57.72
 NUMERICALLY INTEGRATED DENSITY    151.9999920109    151.9999920109
 TTTTTTTTTTTTTTTTTTTTTTTTTTTTTT NUMDFT      TELAPSE       60.71 TCPU       58.03
 CYC   6 ETOT(AU) -1.606515925652E+04 DETOT -1.48E-03 tst  5.89E-05 PX  4.73E-03
 TTTTTTTTTTTTTTTTTTTTTTTTTTTTTT DIIS        TELAPSE       60.73 TCPU       58.05
 DIIS TEST: 0.40652E-03 AT SCF   CYCLE   6 - DIIS ACTIVE - HISTORY:     6 CYCLES
 TTTTTTTTTTTTTTTTTTTTTTTTTTTTTT FDIK        TELAPSE       61.06 TCPU       58.38

    ALPHA      ELECTRONS
 INSULATING STATE
 TOP OF VALENCE BANDS -    BAND    152; K   19; EIG -1.6866298E-01 AU
 TOP OF VALENCE BANDS -    BAND    152; K    1; EIG -2.0100488E-01 AU
 BOTTOM OF VIRTUAL BANDS - BAND    153; K    1; EIG -8.6386957E-02 AU
 INDIRECT ENERGY BAND GAP:   2.2388 eV

    BETA       ELECTRONS
 INSULATING STATE
 TOP OF VALENCE BANDS -    BAND    152; K   19; EIG -1.6866298E-01 AU
 TOP OF VALENCE BANDS -    BAND    152; K    1; EIG -2.0100488E-01 AU
 BOTTOM OF VIRTUAL BANDS - BAND    153; K    1; EIG -8.6386957E-02 AU
 INDIRECT ENERGY BAND GAP:   2.2388 eV
 TTTTTTTTTTTTTTTTTTTTTTTTTTTTTT PDIG        TELAPSE       61.26 TCPU       58.58
 TTTTTTTTTTTTTTTTTTTTTTTTTTTTTT MOQGAD      TELAPSE       61.27 TCPU       58.59
 TTTTTTTTTTTTTTTTTTTTTTTTTTTTTT SHELLXN     TELAPSE       67.13 TCPU       64.31
 TTTTTTTTTTTTTTTTTTTTTTTTTTTTTT MONMO3      TELAPSE       67.14 TCPU       64.32
 NUMERICALLY INTEGRATED DENSITY    151.9999920215    151.9999920215
 TTTTTTTTTTTTTTTTTTTTTTTTTTTTTT NUMDFT      TELAPSE       67.46 TCPU       64.64
 CYC   7 ETOT(AU) -1.606515931429E+04 DETOT -5.78E-05 tst  7.62E-06 PX  2.08E-03
 TTTTTTTTTTTTTTTTTTTTTTTTTTTTTT DIIS        TELAPSE       67.48 TCPU       64.66
 DIIS TEST: 0.43791E-03 AT SCF   CYCLE   7 - DIIS ACTIVE - HISTORY:     7 CYCLES
 TTTTTTTTTTTTTTTTTTTTTTTTTTTTTT FDIK        TELAPSE       67.80 TCPU       64.98

    ALPHA      ELECTRONS
 INSULATING STATE
 TOP OF VALENCE BANDS -    BAND    152; K   19; EIG -1.6861695E-01 AU
 TOP OF VALENCE BANDS -    BAND    152; K    1; EIG -2.0083858E-01 AU
 BOTTOM OF VIRTUAL BANDS - BAND    153; K    1; EIG -8.6659250E-02 AU
 INDIRECT ENERGY BAND GAP:   2.2302 eV

    BETA       ELECTRONS
 INSULATING STATE
 TOP OF VALENCE BANDS -    BAND    152; K   19; EIG -1.6861695E-01 AU
 TOP OF VALENCE BANDS -    BAND    152; K    1; EIG -2.0083858E-01 AU
 BOTTOM OF VIRTUAL BANDS - BAND    153; K    1; EIG -8.6659250E-02 AU
 INDIRECT ENERGY BAND GAP:   2.2302 eV
 TTTTTTTTTTTTTTTTTTTTTTTTTTTTTT PDIG        TELAPSE       68.01 TCPU       65.19
 TTTTTTTTTTTTTTTTTTTTTTTTTTTTTT MOQGAD      TELAPSE       68.02 TCPU       65.19
 TTTTTTTTTTTTTTTTTTTTTTTTTTTTTT SHELLXN     TELAPSE       73.87 TCPU       70.99
 TTTTTTTTTTTTTTTTTTTTTTTTTTTTTT MONMO3      TELAPSE       73.89 TCPU       71.00
 NUMERICALLY INTEGRATED DENSITY    151.9999920218    151.9999920218
 TTTTTTTTTTTTTTTTTTTTTTTTTTTTTT NUMDFT      TELAPSE       74.20 TCPU       71.31
 CYC   8 ETOT(AU) -1.606515935812E+04 DETOT -4.38E-05 tst  5.44E-07 PX  7.34E-04
 TTTTTTTTTTTTTTTTTTTTTTTTTTTTTT DIIS        TELAPSE       74.22 TCPU       71.33
 DIIS TEST: 0.15593E-05 AT SCF   CYCLE   8 - DIIS ACTIVE - HISTORY:     8 CYCLES
 TTTTTTTTTTTTTTTTTTTTTTTTTTTTTT FDIK        TELAPSE       74.55 TCPU       71.66

    ALPHA      ELECTRONS
 INSULATING STATE
 TOP OF VALENCE BANDS -    BAND    152; K   19; EIG -1.6861752E-01 AU
 TOP OF VALENCE BANDS -    BAND    152; K    1; EIG -2.0084386E-01 AU
 BOTTOM OF VIRTUAL BANDS - BAND    153; K    1; EIG -8.6691870E-02 AU
 INDIRECT ENERGY BAND GAP:   2.2293 eV

    BETA       ELECTRONS
 INSULATING STATE
 TOP OF VALENCE BANDS -    BAND    152; K   19; EIG -1.6861752E-01 AU
 TOP OF VALENCE BANDS -    BAND    152; K    1; EIG -2.0084386E-01 AU
 BOTTOM OF VIRTUAL BANDS - BAND    153; K    1; EIG -8.6691870E-02 AU
 INDIRECT ENERGY BAND GAP:   2.2293 eV
 TTTTTTTTTTTTTTTTTTTTTTTTTTTTTT PDIG        TELAPSE       74.76 TCPU       71.87
 TTTTTTTTTTTTTTTTTTTTTTTTTTTTTT MOQGAD      TELAPSE       74.77 TCPU       71.87
 TTTTTTTTTTTTTTTTTTTTTTTTTTTTTT SHELLXN     TELAPSE       80.63 TCPU       77.67
 TTTTTTTTTTTTTTTTTTTTTTTTTTTTTT MONMO3      TELAPSE       80.64 TCPU       77.69
 NUMERICALLY INTEGRATED DENSITY    151.9999920222    151.9999920222
 TTTTTTTTTTTTTTTTTTTTTTTTTTTTTT NUMDFT      TELAPSE       81.00 TCPU       78.04
 CYC   9 ETOT(AU) -1.606515935808E+04 DETOT  3.73E-08 tst  2.27E-08 PX  1.59E-04
 TTTTTTTTTTTTTTTTTTTTTTTTTTTTTT DIIS        TELAPSE       81.02 TCPU       78.06
 DIIS TEST: 0.28778E-06 AT SCF   CYCLE   9 - DIIS ACTIVE - HISTORY:     9 CYCLES
 TTTTTTTTTTTTTTTTTTTTTTTTTTTTTT FDIK        TELAPSE       81.37 TCPU       78.41

    ALPHA      ELECTRONS
 INSULATING STATE
 TOP OF VALENCE BANDS -    BAND    152; K   19; EIG -1.6861987E-01 AU
 TOP OF VALENCE BANDS -    BAND    152; K    1; EIG -2.0084408E-01 AU
 BOTTOM OF VIRTUAL BANDS - BAND    153; K    1; EIG -8.6712966E-02 AU
 INDIRECT ENERGY BAND GAP:   2.2288 eV

    BETA       ELECTRONS
 INSULATING STATE
 TOP OF VALENCE BANDS -    BAND    152; K   19; EIG -1.6861987E-01 AU
 TOP OF VALENCE BANDS -    BAND    152; K    1; EIG -2.0084408E-01 AU
 BOTTOM OF VIRTUAL BANDS - BAND    153; K    1; EIG -8.6712966E-02 AU
 INDIRECT ENERGY BAND GAP:   2.2288 eV
 TTTTTTTTTTTTTTTTTTTTTTTTTTTTTT PDIG        TELAPSE       81.58 TCPU       78.61
 TTTTTTTTTTTTTTTTTTTTTTTTTTTTTT MOQGAD      TELAPSE       81.58 TCPU       78.62
 TTTTTTTTTTTTTTTTTTTTTTTTTTTTTT SHELLXN     TELAPSE       87.44 TCPU       84.41
 TTTTTTTTTTTTTTTTTTTTTTTTTTTTTT MONMO3      TELAPSE       87.46 TCPU       84.43
 NUMERICALLY INTEGRATED DENSITY    151.9999920222    151.9999920222
 TTTTTTTTTTTTTTTTTTTTTTTTTTTTTT NUMDFT      TELAPSE       87.81 TCPU       84.78
 CYC  10 ETOT(AU) -1.606515935810E+04 DETOT -1.67E-08 tst  1.26E-08 PX  1.41E-04
 TTTTTTTTTTTTTTTTTTTTTTTTTTTTTT DIIS        TELAPSE       87.83 TCPU       84.80
 DIIS TEST: 0.57484E-07 AT SCF   CYCLE  10 - DIIS ACTIVE - HISTORY:    10 CYCLES
 TTTTTTTTTTTTTTTTTTTTTTTTTTTTTT FDIK        TELAPSE       88.16 TCPU       85.12

    ALPHA      ELECTRONS
 INSULATING STATE
 TOP OF VALENCE BANDS -    BAND    152; K   19; EIG -1.6861776E-01 AU
 TOP OF VALENCE BANDS -    BAND    152; K    1; EIG -2.0084006E-01 AU
 BOTTOM OF VIRTUAL BANDS - BAND    153; K    1; EIG -8.6723770E-02 AU
 INDIRECT ENERGY BAND GAP:   2.2284 eV

    BETA       ELECTRONS
 INSULATING STATE
 TOP OF VALENCE BANDS -    BAND    152; K   19; EIG -1.6861776E-01 AU
 TOP OF VALENCE BANDS -    BAND    152; K    1; EIG -2.0084006E-01 AU
 BOTTOM OF VIRTUAL BANDS - BAND    153; K    1; EIG -8.6723770E-02 AU
 INDIRECT ENERGY BAND GAP:   2.2284 eV
 TTTTTTTTTTTTTTTTTTTTTTTTTTTTTT PDIG        TELAPSE       88.37 TCPU       85.32
 TTTTTTTTTTTTTTTTTTTTTTTTTTTTTT MOQGAD      TELAPSE       88.37 TCPU       85.33
 TTTTTTTTTTTTTTTTTTTTTTTTTTTTTT SHELLXN     TELAPSE       94.22 TCPU       91.12
 TTTTTTTTTTTTTTTTTTTTTTTTTTTTTT MONMO3      TELAPSE       94.24 TCPU       91.14
 NUMERICALLY INTEGRATED DENSITY    151.9999920222    151.9999920222
 TTTTTTTTTTTTTTTTTTTTTTTTTTTTTT NUMDFT      TELAPSE       94.56 TCPU       91.45
 CYC  11 ETOT(AU) -1.606515935806E+04 DETOT  3.74E-08 tst  1.27E-09 PX  4.55E-05
 TTTTTTTTTTTTTTTTTTTTTTTTTTTTTT DIIS        TELAPSE       94.58 TCPU       91.47
 DIIS TEST: 0.65047E-08 AT SCF   CYCLE  11 - DIIS ACTIVE - HISTORY:    11 CYCLES
 TTTTTTTTTTTTTTTTTTTTTTTTTTTTTT FDIK        TELAPSE       94.92 TCPU       91.81

    ALPHA      ELECTRONS
 INSULATING STATE
 TOP OF VALENCE BANDS -    BAND    152; K   19; EIG -1.6861903E-01 AU
 TOP OF VALENCE BANDS -    BAND    152; K    1; EIG -2.0084089E-01 AU
 BOTTOM OF VIRTUAL BANDS - BAND    153; K    1; EIG -8.6728967E-02 AU
 INDIRECT ENERGY BAND GAP:   2.2283 eV

    BETA       ELECTRONS
 INSULATING STATE
 TOP OF VALENCE BANDS -    BAND    152; K   19; EIG -1.6861903E-01 AU
 TOP OF VALENCE BANDS -    BAND    152; K    1; EIG -2.0084089E-01 AU
 BOTTOM OF VIRTUAL BANDS - BAND    153; K    1; EIG -8.6728967E-02 AU
 INDIRECT ENERGY BAND GAP:   2.2283 eV
 TTTTTTTTTTTTTTTTTTTTTTTTTTTTTT PDIG        TELAPSE       95.12 TCPU       92.01
 TTTTTTTTTTTTTTTTTTTTTTTTTTTTTT MOQGAD      TELAPSE       95.13 TCPU       92.02
 TTTTTTTTTTTTTTTTTTTTTTTTTTTTTT SHELLXN     TELAPSE      100.99 TCPU       97.82
 TTTTTTTTTTTTTTTTTTTTTTTTTTTTTT MONMO3      TELAPSE      101.01 TCPU       97.84
 NUMERICALLY INTEGRATED DENSITY    151.9999920222    151.9999920222
 TTTTTTTTTTTTTTTTTTTTTTTTTTTTTT NUMDFT      TELAPSE      101.32 TCPU       98.15
 CYC  12 ETOT(AU) -1.606515935812E+04 DETOT -5.42E-08 tst  2.42E-10 PX  1.96E-05
 TTTTTTTTTTTTTTTTTTTTTTTTTTTTTT DIIS        TELAPSE      101.34 TCPU       98.17
 DIIS TEST: 0.13219E-08 AT SCF   CYCLE  12 - DIIS ACTIVE - HISTORY:    12 CYCLES
 TTTTTTTTTTTTTTTTTTTTTTTTTTTTTT FDIK        TELAPSE      101.67 TCPU       98.49

    ALPHA      ELECTRONS
 INSULATING STATE
 TOP OF VALENCE BANDS -    BAND    152; K   19; EIG -1.6861907E-01 AU
 TOP OF VALENCE BANDS -    BAND    152; K    1; EIG -2.0084058E-01 AU
 BOTTOM OF VIRTUAL BANDS - BAND    153; K    1; EIG -8.6731922E-02 AU
 INDIRECT ENERGY BAND GAP:   2.2283 eV

    BETA       ELECTRONS
 INSULATING STATE
 TOP OF VALENCE BANDS -    BAND    152; K   19; EIG -1.6861907E-01 AU
 TOP OF VALENCE BANDS -    BAND    152; K    1; EIG -2.0084058E-01 AU
 BOTTOM OF VIRTUAL BANDS - BAND    153; K    1; EIG -8.6731922E-02 AU
 INDIRECT ENERGY BAND GAP:   2.2283 eV
 TTTTTTTTTTTTTTTTTTTTTTTTTTTTTT PDIG        TELAPSE      101.88 TCPU       98.70
 TTTTTTTTTTTTTTTTTTTTTTTTTTTTTT MOQGAD      TELAPSE      101.88 TCPU       98.70
 TTTTTTTTTTTTTTTTTTTTTTTTTTTTTT SHELLXN     TELAPSE      107.75 TCPU      104.51
 TTTTTTTTTTTTTTTTTTTTTTTTTTTTTT MONMO3      TELAPSE      107.76 TCPU      104.52
 NUMERICALLY INTEGRATED DENSITY    151.9999920222    151.9999920222
 TTTTTTTTTTTTTTTTTTTTTTTTTTTTTT NUMDFT      TELAPSE      108.10 TCPU      104.86
 CYC  13 ETOT(AU) -1.606515935813E+04 DETOT -1.23E-08 tst  1.18E-10 PX  1.31E-05
 TTTTTTTTTTTTTTTTTTTTTTTTTTTTTT DIIS        TELAPSE      108.13 TCPU      104.88
 DIIS TEST: 0.18832E-09 AT SCF   CYCLE  13 - DIIS ACTIVE - HISTORY:    13 CYCLES
 TTTTTTTTTTTTTTTTTTTTTTTTTTTTTT FDIK        TELAPSE      108.43 TCPU      105.18

    ALPHA      ELECTRONS
 INSULATING STATE
 TOP OF VALENCE BANDS -    BAND    152; K   19; EIG -1.6861912E-01 AU
 TOP OF VALENCE BANDS -    BAND    152; K    1; EIG -2.0084055E-01 AU
 BOTTOM OF VIRTUAL BANDS - BAND    153; K    1; EIG -8.6732241E-02 AU
 INDIRECT ENERGY BAND GAP:   2.2283 eV

    BETA       ELECTRONS
 INSULATING STATE
 TOP OF VALENCE BANDS -    BAND    152; K   19; EIG -1.6861912E-01 AU
 TOP OF VALENCE BANDS -    BAND    152; K    1; EIG -2.0084055E-01 AU
 BOTTOM OF VIRTUAL BANDS - BAND    153; K    1; EIG -8.6732241E-02 AU
 INDIRECT ENERGY BAND GAP:   2.2283 eV
 TTTTTTTTTTTTTTTTTTTTTTTTTTTTTT PDIG        TELAPSE      108.64 TCPU      105.38
 TTTTTTTTTTTTTTTTTTTTTTTTTTTTTT MOQGAD      TELAPSE      108.64 TCPU      105.39
 TTTTTTTTTTTTTTTTTTTTTTTTTTTTTT SHELLXN     TELAPSE      114.49 TCPU      111.18
 TTTTTTTTTTTTTTTTTTTTTTTTTTTTTT MONMO3      TELAPSE      114.51 TCPU      111.20
 NUMERICALLY INTEGRATED DENSITY    151.9999920222    151.9999920222
 TTTTTTTTTTTTTTTTTTTTTTTTTTTTTT NUMDFT      TELAPSE      114.82 TCPU      111.51
 CYC  14 ETOT(AU) -1.606515935813E+04 DETOT  2.20E-09 tst  7.68E-12 PX  3.07E-06
 TTTTTTTTTTTTTTTTTTTTTTTTTTTTTT DIIS        TELAPSE      114.84 TCPU      111.53
 DIIS TEST: 0.80527E-11 AT SCF   CYCLE  14 - DIIS ACTIVE - HISTORY:    14 CYCLES
 TTTTTTTTTTTTTTTTTTTTTTTTTTTTTT FDIK        TELAPSE      115.20 TCPU      111.88

    ALPHA      ELECTRONS
 INSULATING STATE
 TOP OF VALENCE BANDS -    BAND    152; K   19; EIG -1.6861907E-01 AU
 TOP OF VALENCE BANDS -    BAND    152; K    1; EIG -2.0084051E-01 AU
 BOTTOM OF VIRTUAL BANDS - BAND    153; K    1; EIG -8.6732192E-02 AU
 INDIRECT ENERGY BAND GAP:   2.2283 eV

    BETA       ELECTRONS
 INSULATING STATE
 TOP OF VALENCE BANDS -    BAND    152; K   19; EIG -1.6861907E-01 AU
 TOP OF VALENCE BANDS -    BAND    152; K    1; EIG -2.0084051E-01 AU
 BOTTOM OF VIRTUAL BANDS - BAND    153; K    1; EIG -8.6732192E-02 AU
 INDIRECT ENERGY BAND GAP:   2.2283 eV
 TTTTTTTTTTTTTTTTTTTTTTTTTTTTTT PDIG        TELAPSE      115.41 TCPU      112.09
 TTTTTTTTTTTTTTTTTTTTTTTTTTTTTT MOQGAD      TELAPSE      115.41 TCPU      112.09
 TTTTTTTTTTTTTTTTTTTTTTTTTTTTTT SHELLXN     TELAPSE      121.27 TCPU      117.88
 TTTTTTTTTTTTTTTTTTTTTTTTTTTTTT MONMO3      TELAPSE      121.29 TCPU      117.90
 NUMERICALLY INTEGRATED DENSITY    151.9999920222    151.9999920222
 TTTTTTTTTTTTTTTTTTTTTTTTTTTTTT NUMDFT      TELAPSE      121.69 TCPU      118.29
 CYC  15 ETOT(AU) -1.606515935813E+04 DETOT  9.70E-10 tst  1.58E-13 PX  3.12E-07
 TTTTTTTTTTTTTTTTTTTTTTTTTTTTTT DIIS        TELAPSE      121.71 TCPU      118.31
 DIIS TEST: 0.42667E-12 AT SCF   CYCLE  15 - DIIS ACTIVE - HISTORY:    15 CYCLES
 TTTTTTTTTTTTTTTTTTTTTTTTTTTTTT FDIK        TELAPSE      122.04 TCPU      118.63

    ALPHA      ELECTRONS
 INSULATING STATE
 TOP OF VALENCE BANDS -    BAND    152; K   19; EIG -1.6861907E-01 AU
 TOP OF VALENCE BANDS -    BAND    152; K    1; EIG -2.0084052E-01 AU
 BOTTOM OF VIRTUAL BANDS - BAND    153; K    1; EIG -8.6732209E-02 AU
 INDIRECT ENERGY BAND GAP:   2.2283 eV

    BETA       ELECTRONS
 INSULATING STATE
 TOP OF VALENCE BANDS -    BAND    152; K   19; EIG -1.6861907E-01 AU
 TOP OF VALENCE BANDS -    BAND    152; K    1; EIG -2.0084052E-01 AU
 BOTTOM OF VIRTUAL BANDS - BAND    153; K    1; EIG -8.6732209E-02 AU
 INDIRECT ENERGY BAND GAP:   2.2283 eV
 TTTTTTTTTTTTTTTTTTTTTTTTTTTTTT PDIG        TELAPSE      122.28 TCPU      118.87
 TTTTTTTTTTTTTTTTTTTTTTTTTTTTTT MOQGAD      TELAPSE      122.28 TCPU      118.87
 TTTTTTTTTTTTTTTTTTTTTTTTTTTTTT SHELLXN     TELAPSE      128.14 TCPU      124.61
 TTTTTTTTTTTTTTTTTTTTTTTTTTTTTT MONMO3      TELAPSE      128.16 TCPU      124.62
 NUMERICALLY INTEGRATED DENSITY    151.9999920222    151.9999920222
 TTTTTTTTTTTTTTTTTTTTTTTTTTTTTT NUMDFT      TELAPSE      128.47 TCPU      124.93
 CYC  16 ETOT(AU) -1.606515935813E+04 DETOT -2.80E-10 tst  5.47E-15 PX  6.66E-08
 TTTTTTTTTTTTTTTTTTTTTTTTTTTTTT DIIS        TELAPSE      128.49 TCPU      124.96
 DIIS TEST: 0.12591E-13 AT SCF   CYCLE  16 - DIIS ACTIVE - HISTORY:    16 CYCLES
 TTTTTTTTTTTTTTTTTTTTTTTTTTTTTT FDIK        TELAPSE      128.82 TCPU      125.28

    ALPHA      ELECTRONS
 INSULATING STATE
 TOP OF VALENCE BANDS -    BAND    152; K   19; EIG -1.6861907E-01 AU
 TOP OF VALENCE BANDS -    BAND    152; K    1; EIG -2.0084052E-01 AU
 BOTTOM OF VIRTUAL BANDS - BAND    153; K    1; EIG -8.6732211E-02 AU
 INDIRECT ENERGY BAND GAP:   2.2283 eV

    BETA       ELECTRONS
 INSULATING STATE
 TOP OF VALENCE BANDS -    BAND    152; K   19; EIG -1.6861907E-01 AU
 TOP OF VALENCE BANDS -    BAND    152; K    1; EIG -2.0084052E-01 AU
 BOTTOM OF VIRTUAL BANDS - BAND    153; K    1; EIG -8.6732211E-02 AU
 INDIRECT ENERGY BAND GAP:   2.2283 eV
 TTTTTTTTTTTTTTTTTTTTTTTTTTTTTT PDIG        TELAPSE      129.04 TCPU      125.49
 TTTTTTTTTTTTTTTTTTTTTTTTTTTTTT MOQGAD      TELAPSE      129.04 TCPU      125.50
 TTTTTTTTTTTTTTTTTTTTTTTTTTTTTT SHELLXN     TELAPSE      134.90 TCPU      131.30
 TTTTTTTTTTTTTTTTTTTTTTTTTTTTTT MONMO3      TELAPSE      134.92 TCPU      131.32
 NUMERICALLY INTEGRATED DENSITY    151.9999920222    151.9999920222
 TTTTTTTTTTTTTTTTTTTTTTTTTTTTTT NUMDFT      TELAPSE      135.23 TCPU      131.63
 CYC  17 ETOT(AU) -1.606515935813E+04 DETOT -8.00E-11 tst  6.26E-16 PX  1.72E-08
 TTTTTTTTTTTTTTTTTTTTTTTTTTTTTT DIIS        TELAPSE      135.25 TCPU      131.65
 DIIS TEST: 0.14792E-14 AT SCF   CYCLE  17 - DIIS ACTIVE - HISTORY:    17 CYCLES
 TTTTTTTTTTTTTTTTTTTTTTTTTTTTTT FDIK        TELAPSE      135.58 TCPU      131.97

    ALPHA      ELECTRONS
 INSULATING STATE
 TOP OF VALENCE BANDS -    BAND    152; K   19; EIG -1.6861907E-01 AU
 TOP OF VALENCE BANDS -    BAND    152; K    1; EIG -2.0084052E-01 AU
 BOTTOM OF VIRTUAL BANDS - BAND    153; K    1; EIG -8.6732209E-02 AU
 INDIRECT ENERGY BAND GAP:   2.2283 eV

    BETA       ELECTRONS
 INSULATING STATE
 TOP OF VALENCE BANDS -    BAND    152; K   19; EIG -1.6861907E-01 AU
 TOP OF VALENCE BANDS -    BAND    152; K    1; EIG -2.0084052E-01 AU
 BOTTOM OF VIRTUAL BANDS - BAND    153; K    1; EIG -8.6732209E-02 AU
 INDIRECT ENERGY BAND GAP:   2.2283 eV
 TTTTTTTTTTTTTTTTTTTTTTTTTTTTTT PDIG        TELAPSE      135.79 TCPU      132.18
 TTTTTTTTTTTTTTTTTTTTTTTTTTTTTT MOQGAD      TELAPSE      135.80 TCPU      132.18
 TTTTTTTTTTTTTTTTTTTTTTTTTTTTTT SHELLXN     TELAPSE      141.65 TCPU      137.99
 TTTTTTTTTTTTTTTTTTTTTTTTTTTTTT MONMO3      TELAPSE      141.67 TCPU      138.00
 NUMERICALLY INTEGRATED DENSITY    151.9999920222    151.9999920222
 TTTTTTTTTTTTTTTTTTTTTTTTTTTTTT NUMDFT      TELAPSE      141.98 TCPU      138.31
 CYC  18 ETOT(AU) -1.606515935813E+04 DETOT  5.46E-12 tst  5.57E-17 PX  5.39E-09
 TTTTTTTTTTTTTTTTTTTTTTTTTTTTTT DIIS        TELAPSE      142.00 TCPU      138.33
 DIIS TEST: 0.11924E-15 AT SCF   CYCLE  18 - DIIS ACTIVE - HISTORY:    18 CYCLES
 TTTTTTTTTTTTTTTTTTTTTTTTTTTTTT FDIK        TELAPSE      142.34 TCPU      138.66

    ALPHA      ELECTRONS
 INSULATING STATE
 TOP OF VALENCE BANDS -    BAND    152; K   19; EIG -1.6861907E-01 AU
 TOP OF VALENCE BANDS -    BAND    152; K    1; EIG -2.0084052E-01 AU
 BOTTOM OF VIRTUAL BANDS - BAND    153; K    1; EIG -8.6732209E-02 AU
 INDIRECT ENERGY BAND GAP:   2.2283 eV

    BETA       ELECTRONS
 INSULATING STATE
 TOP OF VALENCE BANDS -    BAND    152; K   19; EIG -1.6861907E-01 AU
 TOP OF VALENCE BANDS -    BAND    152; K    1; EIG -2.0084052E-01 AU
 BOTTOM OF VIRTUAL BANDS - BAND    153; K    1; EIG -8.6732209E-02 AU
 INDIRECT ENERGY BAND GAP:   2.2283 eV
 TTTTTTTTTTTTTTTTTTTTTTTTTTTTTT PDIG        TELAPSE      142.54 TCPU      138.85
 TTTTTTTTTTTTTTTTTTTTTTTTTTTTTT MOQGAD      TELAPSE      142.55 TCPU      138.85
 TTTTTTTTTTTTTTTTTTTTTTTTTTTTTT SHELLXN     TELAPSE      148.39 TCPU      144.66
 ::: PSEUDO TOTAL   ENERGY                        -1.5558681526433E+04
 ::: VIRIAL COEFFICIENT                            1.0154282248166E+00
 TTTTTTTTTTTTTTTTTTTTTTTTTTTTTT MONMO3      TELAPSE      148.41 TCPU      144.67
 NUMERICALLY INTEGRATED DENSITY    151.9999920222    151.9999920222
 EXCHANGE ENERGY: -0.492218355688E+03  CORRELATION ENERGY: -0.142594760044E+02
 TTTTTTTTTTTTTTTTTTTTTTTTTTTTTT NUMDFT      TELAPSE      148.80 TCPU      145.06
 CYC  19 ETOT(AU) -1.606515935813E+04 DETOT  3.46E-11 tst  3.46E-18 PX  5.39E-09

 == SCF ENDED - CONVERGENCE ON ENERGY      E(AU) -1.6065159358126E+04 CYCLES  19


 ENERGY EXPRESSION=HARTREE+FOCK EXCH*0.25000+(PBE        EXCH)*0.75000+PBE        CORR


 TOTAL ENERGY(DFT)(AU)( 19) -1.6065159358126E+04 DE 3.5E-11 tester 3.5E-18
 TTTTTTTTTTTTTTTTTTTTTTTTTTTTTT EDFT        TELAPSE      148.81 TCPU      145.06

 *******************************************************************************
 *                             FORCE CALCULATION                               *
 *******************************************************************************

 TTTTTTTTTTTTTTTTTTTTTTTTTTTTTT NUMDFG      TELAPSE      149.49 TCPU      145.73
 INFORMATION **** EXCPOG **** EXCH. BIPO BUFFER LENGTH (WORDS) =     9360612
 INFORMATION **** GENPOG **** BIPO BUFFER LENGTH (WORDS) =     1970400
 TTTTTTTTTTTTTTTTTTTTTTTTTTTTTT SHELXG      TELAPSE      188.11 TCPU      184.08

 CARTESIAN FORCES IN HARTREE/BOHR (ANALYTICAL)
   ATOM                     X                   Y                   Z
   1  27             2.097635170900E-03  2.101332702814E-03 -2.259485400312E-03
   2  27            -2.097635170866E-03 -2.101332702811E-03 -2.259485400395E-03
   3  27            -2.097635170882E-03  2.101332702861E-03 -2.259485400367E-03
   4  27             2.097635170836E-03 -2.101332702811E-03 -2.259485400306E-03
   5  33            -7.633239007410E-05 -7.750067385537E-05 -3.417631784175E-05
   6  33             7.633239003280E-05  7.750067382162E-05 -3.417631780356E-05
   7  33             7.633239001770E-05 -7.750067381807E-05 -3.417631780089E-05
   8  33            -7.633238996396E-05  7.750067383228E-05 -3.417631783742E-05
   9  16             8.347345211424E-04 -1.395864117568E-03  2.293661718275E-03
  10  16            -8.347345211650E-04  1.395864117548E-03  2.293661718336E-03
  11  16            -8.347345211037E-04 -1.395864117533E-03  2.293661718346E-03
  12  16             8.347345211215E-04  1.395864117522E-03  2.293661718294E-03

 RESULTANT FORCE    -4.884981308351E-15  2.664535259100E-15  5.865308239095E-13

 ATOMIC PART

 SYMMETRY ALLOWED FORCES (ANALYTICAL) (DIRECTION, FORCE)

    1  4.1952703E-03    2  4.2026654E-03    3 -5.5345863E-03    4 -1.5266478E-04
    5 -1.5500135E-04    6 -3.2920601E-03    7  1.6694690E-03    8 -2.7917282E-03

 CELL PART

 GRADIENT WITH RESPECT TO THE CELL PARAMETER IN HARTREE/BOHR
ORDER: -D/DA1X, -D/DA1Y, -D/DA1Z
       -D/DA2X, -D/DA2Y, -D/DA2Z
       -D/DA3X, -D/DA3Y, -D/DA3Z
 -0.677908598577E-02 -0.574699186543E-16  0.186266754252E-14
  0.216859738571E-14 -0.562603909307E-02 -0.703913071960E-14
  0.371851709343E-15 -0.104643331329E-13 -0.703587132232E-02

STRESS TENSOR, IN HARTREE/BOHR^3:
ORDER: 11 12 13
       21 22 23
       31 32 33
  0.608549861939E-04 -0.194877922931E-16 -0.333680962558E-17
  0.515900095325E-18  0.505576009642E-04  0.939016458596E-16
 -0.167209278392E-16  0.632561480944E-16  0.631363593679E-04

PRESSURE FROM THE STRESS TENSOR,
IN HARTREE/BOHR^3: -0.58183E-04
PRESSURE IN GIGAPASCAL: -0.1712E+01
CONVERSION FACTOR: 1 HARTREE/BOHR^3= 29421 GIGAPASCAL
WHEN USING VALUES FOR BOHR RADIUS AND HARTREE
FROM IUPAC WEBSITE, APRIL 2009
ENTHALPY: -1.6065227743115E+04

 SYMMETRY ALLOWED FORCES (ANALYTICAL) (DIRECTION, FORCE)

    1 -1.0956294E-02    2 -3.4923654E-04    3  9.8585160E-04
 TTTTTTTTTTTTTTTTTTTTTTTTTTTTTT TOTGRA      TELAPSE      188.51 TCPU      184.47
 INFORMATION **** optc001 **** GEOMETRY OUTPUT FILE
 CLASSICAL MODEL (SCHLEGEL) USED AS INITIAL HESSIAN MATRIX
 REFERENCE GEOMETRY DEFINED

 MAX GRADIENT      0.010956  THRESHOLD              0.000045 CONVERGED NO
 RMS GRADIENT      0.004354  THRESHOLD              0.000030 CONVERGED NO

 GRADIENT NORM     0.014439  GRADIENT THRESHOLD     0.500000

 EIGENVALUES OF THE ESTIMATED HESSIAN
  0.1417      0.1532      0.1695      0.2026      0.2743      0.3182    
  0.3592      0.3619      0.5701      0.6832       1.067    

 INITIAL TRUST RADIUS    0.5000000000E+00

 PREDICTED ENERGY CHANGE    -0.403E-03

 INITIAL DISPLACEMENTS
  0.006122  0.006235 -0.005174 -0.002060 -0.005543 -0.007339 -0.000114 -0.009486
 -0.060813 -0.002696  0.007223
 TTTTTTTTTTTTTTTTTTTTTTTTTTTTTT OPTI        TELAPSE      190.50 TCPU      186.40

 OPTOPTOPTOPTOPTOPTOPTOPTOPTOPTOPTOPTOPTOPTOPTOPTOPTOPTOPTOPTOPTOPTOPTOPTOPTOPT

 - INFORMATION ON SCF MOVED TO SCFOUT.LOG
 GEOMETRY OPTIMIZATION INFORMATION STORED IN OPTINFO.DAT

 OPTOPTOPTOPTOPTOPTOPTOPTOPTOPTOPTOPTOPTOPTOPTOPTOPTOPTOPTOPTOPTOPTOPTOPTOPTOPT
 *******************************************************************************
 COORDINATE AND CELL OPTIMIZATION - POINT    2
 *******************************************************************************
 LATTICE PARAMETERS (ANGSTROMS AND DEGREES) - BOHR = 0.5291772083 ANGSTROM
 PRIMITIVE CELL - CENTRING CODE 1/0 VOLUME=   172.476450 - DENSITY  6.386 g/cm^3
         A              B              C           ALPHA      BETA       GAMMA 
     5.56405101     5.57429837     5.56094361    90.000000  90.000000  90.000000
 *******************************************************************************
 ATOMS IN THE ASYMMETRIC UNIT    3 - ATOMS IN THE UNIT CELL:   12
     ATOM                 X/A                 Y/B                 Z/C    
 *******************************************************************************
      1 T  27 CO    4.953301103409E-01 -2.587948540518E-01 -2.002736885131E-04
      2 F  27 CO   -4.953301103409E-01  2.587948540518E-01  4.997997263115E-01
      3 F  27 CO    4.669889659137E-03 -2.587948540518E-01  4.997997263115E-01
      4 F  27 CO   -4.669889659137E-03  2.587948540518E-01 -2.002736885131E-04
      5 T  33 AS    1.187523824522E-01  1.303875909439E-01 -3.834658788862E-01
      6 F  33 AS   -1.187523824522E-01 -1.303875909439E-01  1.165341211138E-01
      7 F  33 AS    3.812476175478E-01  1.303875909439E-01  1.165341211138E-01
      8 F  33 AS   -3.812476175478E-01 -1.303875909439E-01 -3.834658788862E-01
      9 T  16 S    -1.173453888048E-01  3.682609472879E-01  3.803061525748E-01
     10 F  16 S     1.173453888048E-01 -3.682609472879E-01 -1.196938474253E-01
     11 F  16 S    -3.826546111952E-01  3.682609472879E-01 -1.196938474253E-01
     12 F  16 S     3.826546111952E-01 -3.682609472879E-01  3.803061525748E-01

 T = ATOM BELONGING TO THE ASYMMETRIC UNIT

 TOTAL ENERGY(DFT)(AU)( 19) -1.6065159803971E+04     DE (AU)   -4.458E-04

 UPDATED TRUST RADIUS     0.500E+00

 SYMMETRY ALLOWED FORCES  (COORDINATE, FORCE)

    1  3.0605186E-03    2  2.4992475E-03    3 -3.9533034E-03    4  8.8377334E-04
    5 -6.1988764E-04    6 -7.6232057E-04    7  3.1670146E-04    8 -1.3893466E-04
    9 -9.1069790E-04   10  3.8967671E-05   11  2.7707381E-04

 GRADIENT NORM     0.005832  GRADIENT THRESHOLD     0.500000

 EIGENVALUES OF THE ESTIMATED HESSIAN
  0.1417      0.1491      0.1622      0.2018      0.2647      0.3221    
  0.3587      0.3622      0.5698      0.6695       1.022    

 PREDICTED ENERGY CHANGE    -0.314E-04

 MAX GRADIENT      0.003953  THRESHOLD              0.000045 CONVERGED NO
 RMS GRADIENT      0.001758  THRESHOLD              0.000030 CONVERGED NO
 MAX DISPLAC.      0.008678  THRESHOLD              0.000180 CONVERGED NO
 RMS DISPLAC.      0.004355  THRESHOLD              0.000120 CONVERGED NO
 TTTTTTTTTTTTTTTTTTTTTTTTTTTTTT OPTI        TELAPSE      370.24 TCPU      364.15
 *******************************************************************************
 COORDINATE AND CELL OPTIMIZATION - POINT    3
 *******************************************************************************
 LATTICE PARAMETERS (ANGSTROMS AND DEGREES) - BOHR = 0.5291772083 ANGSTROM
 PRIMITIVE CELL - CENTRING CODE 1/0 VOLUME=   172.236765 - DENSITY  6.395 g/cm^3
         A              B              C           ALPHA      BETA       GAMMA 
     5.56151004     5.57276095     5.55728564    90.000000  90.000000  90.000000
 *******************************************************************************
 ATOMS IN THE ASYMMETRIC UNIT    3 - ATOMS IN THE UNIT CELL:   12
     ATOM                 X/A                 Y/B                 Z/C    
 *******************************************************************************
      1 T  27 CO    4.956280341414E-01 -2.585697614005E-01 -3.760634059229E-04
      2 F  27 CO   -4.956280341414E-01  2.585697614005E-01  4.996239365941E-01
      3 F  27 CO    4.371965858569E-03 -2.585697614005E-01  4.996239365941E-01
      4 F  27 CO   -4.371965858569E-03  2.585697614005E-01 -3.760634059229E-04
      5 T  33 AS    1.187647971350E-01  1.301612485000E-01 -3.834673746019E-01
      6 F  33 AS   -1.187647971350E-01 -1.301612485000E-01  1.165326253981E-01
      7 F  33 AS    3.812352028650E-01  1.301612485000E-01  1.165326253981E-01
      8 F  33 AS   -3.812352028650E-01 -1.301612485000E-01 -3.834673746019E-01
      9 T  16 S    -1.174433810710E-01  3.681269718250E-01  3.804834380078E-01
     10 F  16 S     1.174433810710E-01 -3.681269718250E-01 -1.195165619922E-01
     11 F  16 S    -3.825566189290E-01  3.681269718250E-01 -1.195165619922E-01
     12 F  16 S     3.825566189290E-01 -3.681269718250E-01  3.804834380078E-01

 T = ATOM BELONGING TO THE ASYMMETRIC UNIT

 TOTAL ENERGY(DFT)(AU)( 14) -1.6065159861669E+04     DE (AU)   -5.770E-05

 UPDATED TRUST RADIUS     0.500E+00

 SYMMETRY ALLOWED FORCES  (COORDINATE, FORCE)

    1  2.1219912E-03    2  1.5350694E-03    3 -2.7298392E-03    4  7.1437020E-04
    5 -1.9574866E-04    6 -2.7433271E-04    7  2.4783851E-04    8  3.4394650E-04
    9  6.0195979E-04   10  1.0939157E-04   11  2.0358559E-05

 GRADIENT NORM     0.003936  GRADIENT THRESHOLD     0.500000

 EIGENVALUES OF THE ESTIMATED HESSIAN
  0.1376      0.1447      0.1644      0.2065      0.2342      0.3278    
  0.3483      0.3607      0.5157      0.5717      0.8547    

 PREDICTED ENERGY CHANGE    -0.239E-04

 MAX GRADIENT      0.002730  THRESHOLD              0.000045 CONVERGED NO
 RMS GRADIENT      0.001187  THRESHOLD              0.000030 CONVERGED NO
 MAX DISPLAC.      0.009289  THRESHOLD              0.000180 CONVERGED NO
 RMS DISPLAC.      0.004423  THRESHOLD              0.000120 CONVERGED NO
 TTTTTTTTTTTTTTTTTTTTTTTTTTTTTT OPTI        TELAPSE      516.16 TCPU      508.47
 *******************************************************************************
 COORDINATE AND CELL OPTIMIZATION - POINT    4
 *******************************************************************************
 LATTICE PARAMETERS (ANGSTROMS AND DEGREES) - BOHR = 0.5291772083 ANGSTROM
 PRIMITIVE CELL - CENTRING CODE 1/0 VOLUME=   172.221926 - DENSITY  6.396 g/cm^3
         A              B              C           ALPHA      BETA       GAMMA 
     5.56184216     5.57310278     5.55613422    90.000000  90.000000  90.000000
 *******************************************************************************
 ATOMS IN THE ASYMMETRIC UNIT    3 - ATOMS IN THE UNIT CELL:   12
     ATOM                 X/A                 Y/B                 Z/C    
 *******************************************************************************
      1 T  27 CO    4.960682215878E-01 -2.582809637307E-01 -6.283350774417E-04
      2 F  27 CO   -4.960682215878E-01  2.582809637307E-01  4.993716649226E-01
      3 F  27 CO    3.931778412153E-03 -2.582809637307E-01  4.993716649226E-01
      4 F  27 CO   -3.931778412153E-03  2.582809637307E-01 -6.283350774417E-04
      5 T  33 AS    1.187945842966E-01  1.299280257666E-01 -3.834448888302E-01
      6 F  33 AS   -1.187945842966E-01 -1.299280257666E-01  1.165551111698E-01
      7 F  33 AS    3.812054157034E-01  1.299280257666E-01  1.165551111698E-01
      8 F  33 AS   -3.812054157034E-01 -1.299280257666E-01 -3.834448888302E-01
      9 T  16 S    -1.175576529554E-01  3.680395406092E-01  3.807132239076E-01
     10 F  16 S     1.175576529554E-01 -3.680395406092E-01 -1.192867760924E-01
     11 F  16 S    -3.824423470446E-01  3.680395406092E-01 -1.192867760924E-01
     12 F  16 S     3.824423470446E-01 -3.680395406092E-01  3.807132239076E-01

 T = ATOM BELONGING TO THE ASYMMETRIC UNIT

 TOTAL ENERGY(DFT)(AU)( 16) -1.6065159916977E+04     DE (AU)   -5.531E-05

 UPDATED TRUST RADIUS     0.500E+00

 SYMMETRY ALLOWED FORCES  (COORDINATE, FORCE)

    1  7.0979389E-04    2  4.1146494E-04    3 -9.9120156E-04    4  2.6743998E-04
    5  3.0381027E-04    6  5.5250707E-05    7  2.2521482E-04    8  4.5272498E-04
    9  8.3364359E-04   10  8.2414359E-05   11 -1.3439476E-04

 GRADIENT NORM     0.001673  GRADIENT THRESHOLD     0.500000

 EIGENVALUES OF THE ESTIMATED HESSIAN
  0.1345      0.1467      0.1596      0.2057      0.2352      0.3258    
  0.3313      0.3603      0.4391      0.5707      0.8272    

 PREDICTED ENERGY CHANGE    -0.484E-05

 MAX GRADIENT      0.000991  THRESHOLD              0.000045 CONVERGED NO
 RMS GRADIENT      0.000504  THRESHOLD              0.000030 CONVERGED NO
 MAX DISPLAC.      0.003824  THRESHOLD              0.000180 CONVERGED NO
 RMS DISPLAC.      0.001981  THRESHOLD              0.000120 CONVERGED NO
 TTTTTTTTTTTTTTTTTTTTTTTTTTTTTT OPTI        TELAPSE      676.06 TCPU      666.52
 *******************************************************************************
 COORDINATE AND CELL OPTIMIZATION - POINT    5
 *******************************************************************************
 LATTICE PARAMETERS (ANGSTROMS AND DEGREES) - BOHR = 0.5291772083 ANGSTROM
 PRIMITIVE CELL - CENTRING CODE 1/0 VOLUME=   172.327447 - DENSITY  6.392 g/cm^3
         A              B              C           ALPHA      BETA       GAMMA 
     5.56333743     5.57391399     5.55723536    90.000000  90.000000  90.000000
 *******************************************************************************
 ATOMS IN THE ASYMMETRIC UNIT    3 - ATOMS IN THE UNIT CELL:   12
     ATOM                 X/A                 Y/B                 Z/C    
 *******************************************************************************
      1 T  27 CO    4.962487335184E-01 -2.581831918932E-01 -7.336418411160E-04
      2 F  27 CO   -4.962487335184E-01  2.581831918932E-01  4.992663581589E-01
      3 F  27 CO    3.751266481563E-03 -2.581831918932E-01  4.992663581589E-01
      4 F  27 CO   -3.751266481563E-03  2.581831918932E-01 -7.336418411160E-04
      5 T  33 AS    1.188091472245E-01  1.299131422017E-01 -3.834251422784E-01
      6 F  33 AS   -1.188091472245E-01 -1.299131422017E-01  1.165748577216E-01
      7 F  33 AS    3.811908527755E-01  1.299131422017E-01  1.165748577216E-01
      8 F  33 AS   -3.811908527755E-01 -1.299131422017E-01 -3.834251422784E-01
      9 T  16 S    -1.175686668261E-01  3.680635340727E-01  3.807987841195E-01
     10 F  16 S     1.175686668261E-01 -3.680635340727E-01 -1.192012158805E-01
     11 F  16 S    -3.824313331739E-01  3.680635340727E-01 -1.192012158805E-01
     12 F  16 S     3.824313331739E-01 -3.680635340727E-01  3.807987841195E-01

 T = ATOM BELONGING TO THE ASYMMETRIC UNIT

 TOTAL ENERGY(DFT)(AU)( 13) -1.6065159935921E+04     DE (AU)   -1.894E-05

 UPDATED TRUST RADIUS     0.500E+00

 SYMMETRY ALLOWED FORCES  (COORDINATE, FORCE)

    1  7.7252412E-05    2  8.4070974E-05    3 -2.5201924E-04    4  4.0082192E-05
    5  2.9226082E-04    6  8.4524042E-05    7  1.4353668E-04    8  2.3320637E-04
    9  2.8063957E-04   10  2.1184064E-05   11 -8.0244462E-05

 GRADIENT NORM     0.000576  GRADIENT THRESHOLD     0.500000

 EIGENVALUES OF THE ESTIMATED HESSIAN
  0.1378      0.1516      0.1549      0.1832      0.2417      0.2995    
  0.3293      0.3598      0.4013      0.5719      0.8129    

 PREDICTED ENERGY CHANGE    -0.674E-06

 MAX GRADIENT      0.000292  THRESHOLD              0.000045 CONVERGED NO
 RMS GRADIENT      0.000174  THRESHOLD              0.000030 CONVERGED NO
 MAX DISPLAC.      0.001848  THRESHOLD              0.000180 CONVERGED NO
 RMS DISPLAC.      0.000771  THRESHOLD              0.000120 CONVERGED NO
 TTTTTTTTTTTTTTTTTTTTTTTTTTTTTT OPTI        TELAPSE      815.50 TCPU      804.24
 *******************************************************************************
 COORDINATE AND CELL OPTIMIZATION - POINT    6
 *******************************************************************************
 LATTICE PARAMETERS (ANGSTROMS AND DEGREES) - BOHR = 0.5291772083 ANGSTROM
 PRIMITIVE CELL - CENTRING CODE 1/0 VOLUME=   172.378478 - DENSITY  6.390 g/cm^3
         A              B              C           ALPHA      BETA       GAMMA 
     5.56398219     5.57417180     5.55797977    90.000000  90.000000  90.000000
 *******************************************************************************
 ATOMS IN THE ASYMMETRIC UNIT    3 - ATOMS IN THE UNIT CELL:   12
     ATOM                 X/A                 Y/B                 Z/C    
 *******************************************************************************
      1 T  27 CO    4.962755961405E-01 -2.581712115605E-01 -7.563725896730E-04
      2 F  27 CO   -4.962755961405E-01  2.581712115605E-01  4.992436274103E-01
      3 F  27 CO    3.724403859498E-03 -2.581712115605E-01  4.992436274103E-01
      4 F  27 CO   -3.724403859498E-03  2.581712115605E-01 -7.563725896730E-04
      5 T  33 AS    1.188148798604E-01  1.299609941342E-01 -3.834126593651E-01
      6 F  33 AS   -1.188148798604E-01 -1.299609941342E-01  1.165873406349E-01
      7 F  33 AS    3.811851201396E-01  1.299609941342E-01  1.165873406349E-01
      8 F  33 AS   -3.811851201396E-01 -1.299609941342E-01 -3.834126593651E-01
      9 T  16 S    -1.175441318404E-01  3.681004481944E-01  3.808090319548E-01
     10 F  16 S     1.175441318404E-01 -3.681004481944E-01 -1.191909680452E-01
     11 F  16 S    -3.824558681596E-01  3.681004481944E-01 -1.191909680452E-01
     12 F  16 S     3.824558681596E-01 -3.681004481944E-01  3.808090319548E-01

 T = ATOM BELONGING TO THE ASYMMETRIC UNIT

 TOTAL ENERGY(DFT)(AU)( 14) -1.6065159939923E+04     DE (AU)   -4.002E-06

 UPDATED TRUST RADIUS     0.500E+00

 SYMMETRY ALLOWED FORCES  (COORDINATE, FORCE)

    1 -6.4251357E-05    2  6.4466972E-05    3 -7.4361605E-05    4 -8.3970762E-06
    5  1.3180494E-04    6  5.0611217E-05    7  6.0710831E-05    8  7.0705446E-05
    9 -7.8368509E-07   10 -4.7163716E-06   11 -1.7230639E-05

 GRADIENT NORM     0.000207  GRADIENT THRESHOLD     0.500000

 EIGENVALUES OF THE ESTIMATED HESSIAN
  0.1369      0.1414      0.1668      0.1727      0.2342      0.2850    
  0.3309      0.3592      0.3799      0.5758      0.7964    

 PREDICTED ENERGY CHANGE    -0.801E-07

 MAX GRADIENT      0.000132  THRESHOLD              0.000045 CONVERGED NO
 RMS GRADIENT      0.000062  THRESHOLD              0.000030 CONVERGED NO
 MAX DISPLAC.      0.000589  THRESHOLD              0.000180 CONVERGED NO
 RMS DISPLAC.      0.000273  THRESHOLD              0.000120 CONVERGED NO
 TTTTTTTTTTTTTTTTTTTTTTTTTTTTTT OPTI        TELAPSE      961.65 TCPU      948.73
 *******************************************************************************
 COORDINATE AND CELL OPTIMIZATION - POINT    7
 *******************************************************************************
 LATTICE PARAMETERS (ANGSTROMS AND DEGREES) - BOHR = 0.5291772083 ANGSTROM
 PRIMITIVE CELL - CENTRING CODE 1/0 VOLUME=   172.384608 - DENSITY  6.389 g/cm^3
         A              B              C           ALPHA      BETA       GAMMA 
     5.56403131     5.57415555     5.55814453    90.000000  90.000000  90.000000
 *******************************************************************************
 ATOMS IN THE ASYMMETRIC UNIT    3 - ATOMS IN THE UNIT CELL:   12
     ATOM                 X/A                 Y/B                 Z/C    
 *******************************************************************************
      1 T  27 CO    4.962652532756E-01 -2.581696377875E-01 -7.592107745989E-04
      2 F  27 CO   -4.962652532756E-01  2.581696377875E-01  4.992407892254E-01
      3 F  27 CO    3.734746724357E-03 -2.581696377875E-01  4.992407892254E-01
      4 F  27 CO   -3.734746724357E-03  2.581696377875E-01 -7.592107745989E-04
[...]
   30-  30      393.0934 (A1 )  351.24    0.00    0.00  495.89    0.00   27.70
   31-  31      396.6639 (B1 )    0.00    0.00    0.00    0.00   29.65    0.00
   32-  32      404.1357 (B2 )    0.00    0.00   50.43    0.00    0.00    0.00
   33-  33      414.2318 (A1 )  302.80    0.00    0.00  610.68    0.00  705.32
   34-  34      434.4964 (B2 )    0.00    0.00  124.79    0.00    0.00    0.00
   35-  35      436.2421 (A2 )    0.00  123.87    0.00    0.00    0.00    0.00
   36-  36      436.4228 (B1 )    0.00    0.00    0.00    0.00  184.49    0.00

 <RAMAN><RAMAN><RAMAN><RAMAN><RAMAN><RAMAN><RAMAN><RAMAN><RAMAN><RAMAN><RAMAN>
 <RAMAN><RAMAN><RAMAN><RAMAN><RAMAN><RAMAN><RAMAN><RAMAN><RAMAN><RAMAN><RAMAN>


 NORMAL MODES NORMALIZED TO CLASSICAL AMPLITUDES (IN BOHR)

 FREQ(CM**-1)      0.00      0.00      0.00    167.34    169.63    171.67

 AT.   1 CO X    -0.0000   -0.0000    0.0388    0.0013   -0.0282   -0.0038
            Y     0.0000    0.0388   -0.0000    0.0033   -0.0009    0.0286
            Z     0.0388   -0.0000   -0.0000   -0.0288   -0.0037    0.0012
 AT.   2 CO X     0.0000   -0.0000    0.0388    0.0013    0.0282   -0.0038
            Y    -0.0000    0.0388   -0.0000    0.0033    0.0009    0.0286
            Z     0.0388    0.0000    0.0000    0.0288   -0.0037   -0.0012
 AT.   3 CO X     0.0000    0.0000    0.0388   -0.0013    0.0282   -0.0038
            Y     0.0000    0.0388    0.0000    0.0033   -0.0009   -0.0286
            Z     0.0388   -0.0000    0.0000   -0.0288   -0.0037   -0.0012
 AT.   4 CO X    -0.0000    0.0000    0.0388   -0.0013   -0.0282   -0.0038
            Y    -0.0000    0.0388    0.0000    0.0033    0.0009   -0.0286
            Z     0.0388    0.0000   -0.0000    0.0288   -0.0037    0.0012
 AT.   5 AS X     0.0000   -0.0000    0.0388   -0.0013    0.0380    0.0029
            Y     0.0000    0.0388   -0.0000   -0.0020   -0.0001   -0.0369
            Z     0.0388    0.0000    0.0000    0.0382    0.0028    0.0015
 AT.   6 AS X    -0.0000   -0.0000    0.0388   -0.0013   -0.0380    0.0029
            Y    -0.0000    0.0388   -0.0000   -0.0020    0.0001   -0.0369
            Z     0.0388   -0.0000   -0.0000   -0.0382    0.0028   -0.0015
 AT.   7 AS X    -0.0000    0.0000    0.0388    0.0013   -0.0380    0.0029
            Y     0.0000    0.0388    0.0000   -0.0020   -0.0001    0.0369
            Z     0.0388    0.0000   -0.0000    0.0382    0.0028   -0.0015
 AT.   8 AS X     0.0000    0.0000    0.0388    0.0013    0.0380    0.0029
            Y    -0.0000    0.0388    0.0000   -0.0020    0.0001    0.0369
            Z     0.0388   -0.0000    0.0000   -0.0382    0.0028    0.0015
 AT.   9 S  X    -0.0000    0.0000    0.0388    0.0028    0.0253    0.0001
            Y     0.0000    0.0388    0.0000   -0.0013   -0.0030   -0.0268
            Z     0.0388    0.0000   -0.0000    0.0251    0.0003    0.0023
 AT.  10 S  X     0.0000    0.0000    0.0388    0.0028   -0.0253    0.0001
            Y    -0.0000    0.0388    0.0000   -0.0013    0.0030   -0.0268
            Z     0.0388   -0.0000    0.0000   -0.0251    0.0003   -0.0023
 AT.  11 S  X     0.0000   -0.0000    0.0388   -0.0028   -0.0253    0.0001
            Y     0.0000    0.0388   -0.0000   -0.0013   -0.0030    0.0268
            Z     0.0388    0.0000    0.0000    0.0251    0.0003   -0.0023
 AT.  12 S  X    -0.0000   -0.0000    0.0388   -0.0028    0.0253    0.0001
            Y    -0.0000    0.0388   -0.0000   -0.0013    0.0030    0.0268
            Z     0.0388   -0.0000   -0.0000   -0.0251    0.0003    0.0023

 FREQ(CM**-1)    172.23    187.68    190.23    237.39    237.61    244.61

 AT.   1 CO X     0.0138    0.0013    0.0257    0.0081    0.0006   -0.0057
            Y    -0.0146    0.0217    0.0102   -0.0030    0.0053   -0.0101
            Z     0.0163    0.0202   -0.0122   -0.0053    0.0080    0.0017
 AT.   2 CO X    -0.0138   -0.0013   -0.0257   -0.0081    0.0006   -0.0057
            Y     0.0146   -0.0217   -0.0102    0.0030    0.0053   -0.0101
            Z     0.0163    0.0202   -0.0122   -0.0053   -0.0080   -0.0017
 AT.   3 CO X     0.0138    0.0013    0.0257   -0.0081   -0.0006   -0.0057
            Y     0.0146   -0.0217   -0.0102   -0.0030    0.0053    0.0101
            Z    -0.0163   -0.0202    0.0122   -0.0053    0.0080   -0.0017
 AT.   4 CO X    -0.0138   -0.0013   -0.0257    0.0081   -0.0006   -0.0057
            Y    -0.0146    0.0217    0.0102    0.0030    0.0053    0.0101
            Z    -0.0163   -0.0202    0.0122   -0.0053   -0.0080    0.0017
 AT.   5 AS X    -0.0197   -0.0076   -0.0285    0.0020    0.0391    0.0023
            Y     0.0217   -0.0296   -0.0048   -0.0394   -0.0012   -0.0018
            Z    -0.0249   -0.0188    0.0197    0.0022    0.0039    0.0378
 AT.   6 AS X     0.0197    0.0076    0.0285   -0.0020    0.0391    0.0023
            Y    -0.0217    0.0296    0.0048    0.0394   -0.0012   -0.0018
            Z    -0.0249   -0.0188    0.0197    0.0022   -0.0039   -0.0378
 AT.   7 AS X    -0.0197   -0.0076   -0.0285   -0.0020   -0.0391    0.0023
            Y    -0.0217    0.0296    0.0048   -0.0394   -0.0012    0.0018
            Z     0.0249    0.0188   -0.0197    0.0022    0.0039   -0.0378
 AT.   8 AS X     0.0197    0.0076    0.0285    0.0020   -0.0391    0.0023
            Y     0.0217   -0.0296   -0.0048    0.0394   -0.0012    0.0018
            Z     0.0249    0.0188   -0.0197    0.0022   -0.0039    0.0378
 AT.   9 S  X    -0.0162   -0.0033   -0.0171    0.0060    0.0098    0.0052
            Y     0.0155   -0.0155   -0.0039   -0.0080   -0.0068   -0.0059
            Z    -0.0166   -0.0114    0.0089    0.0046    0.0046    0.0130
 AT.  10 S  X     0.0162    0.0033    0.0171   -0.0060    0.0098    0.0052
            Y    -0.0155    0.0155    0.0039    0.0080   -0.0068   -0.0059
            Z    -0.0166   -0.0114    0.0089    0.0046   -0.0046   -0.0130
 AT.  11 S  X    -0.0162   -0.0033   -0.0171   -0.0060   -0.0098    0.0052
            Y    -0.0155    0.0155    0.0039   -0.0080   -0.0068    0.0059
            Z     0.0166    0.0114   -0.0089    0.0046    0.0046   -0.0130
 AT.  12 S  X     0.0162    0.0033    0.0171    0.0060   -0.0098    0.0052
            Y     0.0155   -0.0155   -0.0039    0.0080   -0.0068    0.0059
            Z     0.0166    0.0114   -0.0089    0.0046   -0.0046    0.0130

 FREQ(CM**-1)    279.43    281.92    285.97    288.38    289.64    289.83

 AT.   1 CO X     0.0157    0.0210    0.0012    0.0408    0.0142   -0.0132
            Y     0.0023   -0.0218   -0.0110   -0.0028   -0.0088   -0.0344
            Z     0.0112    0.0210   -0.0385   -0.0069    0.0125    0.0082
 AT.   2 CO X    -0.0157   -0.0210    0.0012    0.0408    0.0142    0.0132
            Y    -0.0023    0.0218   -0.0110   -0.0028   -0.0088    0.0344
            Z     0.0112    0.0210    0.0385    0.0069   -0.0125    0.0082
 AT.   3 CO X    -0.0157    0.0210    0.0012   -0.0408    0.0142    0.0132
            Y     0.0023    0.0218    0.0110   -0.0028    0.0088   -0.0344
            Z     0.0112   -0.0210    0.0385   -0.0069   -0.0125    0.0082
 AT.   4 CO X     0.0157   -0.0210    0.0012   -0.0408    0.0142   -0.0132
            Y    -0.0023   -0.0218    0.0110   -0.0028    0.0088    0.0344
            Z     0.0112   -0.0210   -0.0385    0.0069    0.0125    0.0082
 AT.   5 AS X     0.0172    0.0105   -0.0033    0.0017   -0.0222   -0.0074
            Y     0.0007   -0.0109   -0.0099    0.0031   -0.0127   -0.0024
            Z    -0.0198    0.0111   -0.0015   -0.0046    0.0002   -0.0100
 AT.   6 AS X    -0.0172   -0.0105   -0.0033    0.0017   -0.0222    0.0074
            Y    -0.0007    0.0109   -0.0099    0.0031   -0.0127    0.0024
            Z    -0.0198    0.0111    0.0015    0.0046   -0.0002   -0.0100
 AT.   7 AS X    -0.0172    0.0105   -0.0033   -0.0017   -0.0222    0.0074
            Y     0.0007    0.0109    0.0099    0.0031    0.0127   -0.0024
            Z    -0.0198   -0.0111    0.0015   -0.0046   -0.0002   -0.0100
 AT.   8 AS X     0.0172   -0.0105   -0.0033   -0.0017   -0.0222   -0.0074
            Y    -0.0007   -0.0109    0.0099    0.0031    0.0127    0.0024
            Z    -0.0198   -0.0111   -0.0015    0.0046    0.0002   -0.0100
 AT.   9 S  X    -0.0199    0.0033    0.0055   -0.0031    0.0258    0.0030
            Y     0.0030    0.0008    0.0058   -0.0020    0.0153    0.0131
            Z     0.0257    0.0016    0.0032   -0.0006   -0.0036    0.0084
 AT.  10 S  X     0.0199   -0.0033    0.0055   -0.0031    0.0258   -0.0030
            Y    -0.0030   -0.0008    0.0058   -0.0020    0.0153   -0.0131
            Z     0.0257    0.0016   -0.0032    0.0006    0.0036    0.0084
 AT.  11 S  X     0.0199    0.0033    0.0055    0.0031    0.0258   -0.0030
            Y     0.0030   -0.0008   -0.0058   -0.0020   -0.0153    0.0131
            Z     0.0257   -0.0016   -0.0032   -0.0006    0.0036    0.0084
 AT.  12 S  X    -0.0199   -0.0033    0.0055    0.0031    0.0258    0.0030
            Y    -0.0030    0.0008   -0.0058   -0.0020   -0.0153   -0.0131
            Z     0.0257   -0.0016    0.0032    0.0006   -0.0036    0.0084

 FREQ(CM**-1)    294.56    296.62    300.52    307.79    310.52    315.74

 AT.   1 CO X     0.0074   -0.0178    0.0056   -0.0107    0.0193   -0.0061
            Y     0.0005    0.0234   -0.0130   -0.0221    0.0130   -0.0171
            Z     0.0259    0.0104   -0.0200    0.0112   -0.0039   -0.0073
 AT.   2 CO X     0.0074    0.0178   -0.0056   -0.0107   -0.0193   -0.0061
            Y     0.0005   -0.0234    0.0130   -0.0221   -0.0130   -0.0171
            Z    -0.0259    0.0104   -0.0200   -0.0112   -0.0039    0.0073
 AT.   3 CO X    -0.0074    0.0178    0.0056   -0.0107    0.0193    0.0061
            Y     0.0005    0.0234    0.0130    0.0221   -0.0130   -0.0171
            Z     0.0259    0.0104    0.0200   -0.0112    0.0039   -0.0073
 AT.   4 CO X    -0.0074   -0.0178   -0.0056   -0.0107   -0.0193    0.0061
            Y     0.0005   -0.0234   -0.0130    0.0221    0.0130   -0.0171
            Z    -0.0259    0.0104    0.0200    0.0112    0.0039    0.0073
 AT.   5 AS X    -0.0066   -0.0114    0.0016    0.0129    0.0185    0.0046
            Y     0.0031   -0.0068   -0.0154   -0.0154    0.0101    0.0230
            Z     0.0212   -0.0128   -0.0164   -0.0088   -0.0081    0.0016
 AT.   6 AS X    -0.0066    0.0114   -0.0016    0.0129   -0.0185    0.0046
            Y     0.0031    0.0068    0.0154   -0.0154   -0.0101    0.0230
            Z    -0.0212   -0.0128   -0.0164    0.0088   -0.0081   -0.0016
 AT.   7 AS X     0.0066    0.0114    0.0016    0.0129    0.0185   -0.0046
            Y     0.0031   -0.0068    0.0154    0.0154   -0.0101    0.0230
            Z     0.0212   -0.0128    0.0164    0.0088    0.0081    0.0016
 AT.   8 AS X     0.0066   -0.0114   -0.0016    0.0129   -0.0185   -0.0046
            Y     0.0031    0.0068   -0.0154    0.0154    0.0101    0.0230
            Z    -0.0212   -0.0128    0.0164   -0.0088    0.0081   -0.0016
 AT.   9 S  X     0.0082    0.0128   -0.0055   -0.0105   -0.0187   -0.0192
            Y    -0.0080    0.0173    0.0182    0.0137   -0.0194   -0.0223
            Z    -0.0234    0.0109    0.0217    0.0170    0.0094   -0.0107
 AT.  10 S  X     0.0082   -0.0128    0.0055   -0.0105    0.0187   -0.0192
            Y    -0.0080   -0.0173   -0.0182    0.0137    0.0194   -0.0223
            Z     0.0234    0.0109    0.0217   -0.0170    0.0094    0.0107
 AT.  11 S  X    -0.0082   -0.0128   -0.0055   -0.0105   -0.0187    0.0192
            Y    -0.0080    0.0173   -0.0182   -0.0137    0.0194   -0.0223
            Z    -0.0234    0.0109   -0.0217   -0.0170   -0.0094   -0.0107
 AT.  12 S  X    -0.0082    0.0128    0.0055   -0.0105    0.0187    0.0192
            Y    -0.0080   -0.0173    0.0182   -0.0137   -0.0194   -0.0223
            Z     0.0234    0.0109   -0.0217    0.0170   -0.0094    0.0107

 FREQ(CM**-1)    365.80    371.07    373.03    375.33    377.83    393.09

 AT.   1 CO X     0.0181    0.0023    0.0035    0.0077    0.0140   -0.0083
            Y    -0.0017    0.0006    0.0181    0.0185    0.0002    0.0015
            Z    -0.0045    0.0177   -0.0021    0.0075   -0.0148   -0.0178
 AT.   2 CO X    -0.0181    0.0023    0.0035   -0.0077   -0.0140    0.0083
            Y     0.0017    0.0006    0.0181   -0.0185   -0.0002   -0.0015
            Z    -0.0045   -0.0177    0.0021    0.0075   -0.0148   -0.0178
 AT.   3 CO X    -0.0181   -0.0023    0.0035    0.0077    0.0140    0.0083
            Y    -0.0017    0.0006   -0.0181   -0.0185   -0.0002    0.0015
            Z    -0.0045    0.0177    0.0021   -0.0075    0.0148   -0.0178
 AT.   4 CO X     0.0181   -0.0023    0.0035   -0.0077   -0.0140   -0.0083
            Y     0.0017    0.0006   -0.0181    0.0185    0.0002   -0.0015
            Z    -0.0045   -0.0177   -0.0021   -0.0075    0.0148   -0.0178
 AT.   5 AS X     0.0028   -0.0023   -0.0007    0.0042    0.0023    0.0014
            Y     0.0030    0.0013    0.0016    0.0027   -0.0014   -0.0023
            Z     0.0026    0.0014    0.0026    0.0014   -0.0033    0.0083
 AT.   6 AS X    -0.0028   -0.0023   -0.0007   -0.0042   -0.0023   -0.0014
            Y    -0.0030    0.0013    0.0016   -0.0027    0.0014    0.0023
            Z     0.0026   -0.0014   -0.0026    0.0014   -0.0033    0.0083
 AT.   7 AS X    -0.0028    0.0023   -0.0007    0.0042    0.0023   -0.0014
            Y     0.0030    0.0013   -0.0016   -0.0027    0.0014   -0.0023
            Z     0.0026    0.0014   -0.0026   -0.0014    0.0033    0.0083
 AT.   8 AS X     0.0028    0.0023   -0.0007   -0.0042   -0.0023    0.0014
            Y    -0.0030    0.0013   -0.0016    0.0027   -0.0014    0.0023
            Z     0.0026   -0.0014    0.0026   -0.0014    0.0033    0.0083
 AT.   9 S  X     0.0291   -0.0264   -0.0047    0.0134    0.0257   -0.0260
            Y     0.0320   -0.0044    0.0319    0.0367   -0.0022    0.0255
            Z     0.0023    0.0348    0.0288    0.0084   -0.0319    0.0133
 AT.  10 S  X    -0.0291   -0.0264   -0.0047   -0.0134   -0.0257    0.0260
            Y    -0.0320   -0.0044    0.0319   -0.0367    0.0022   -0.0255
            Z     0.0023   -0.0348   -0.0288    0.0084   -0.0319    0.0133
 AT.  11 S  X    -0.0291    0.0264   -0.0047    0.0134    0.0257    0.0260
            Y     0.0320   -0.0044   -0.0319   -0.0367    0.0022    0.0255
            Z     0.0023    0.0348   -0.0288   -0.0084    0.0319    0.0133
 AT.  12 S  X     0.0291    0.0264   -0.0047   -0.0134   -0.0257   -0.0260
            Y    -0.0320   -0.0044   -0.0319    0.0367   -0.0022   -0.0255
            Z     0.0023   -0.0348    0.0288   -0.0084    0.0319    0.0133

 FREQ(CM**-1)    396.66    404.14    414.23    434.50    436.24    436.42

 AT.   1 CO X     0.0003    0.0227    0.0002   -0.0052   -0.0037   -0.0001
            Y    -0.0212   -0.0060    0.0008   -0.0017    0.0011    0.0105
            Z     0.0055    0.0005    0.0157    0.0003   -0.0037   -0.0002
 AT.   2 CO X     0.0003    0.0227   -0.0002   -0.0052    0.0037   -0.0001
            Y    -0.0212   -0.0060   -0.0008   -0.0017   -0.0011    0.0105
            Z    -0.0055   -0.0005    0.0157   -0.0003   -0.0037    0.0002
 AT.   3 CO X    -0.0003    0.0227   -0.0002   -0.0052   -0.0037    0.0001
            Y    -0.0212    0.0060    0.0008    0.0017   -0.0011    0.0105
            Z     0.0055   -0.0005    0.0157   -0.0003    0.0037   -0.0002
 AT.   4 CO X    -0.0003    0.0227    0.0002   -0.0052    0.0037    0.0001
            Y    -0.0212    0.0060   -0.0008    0.0017    0.0011    0.0105
            Z    -0.0055    0.0005    0.0157    0.0003    0.0037    0.0002
 AT.   5 AS X    -0.0007   -0.0055    0.0061   -0.0044    0.0072   -0.0059
            Y     0.0092   -0.0010   -0.0055    0.0063   -0.0052    0.0054
            Z    -0.0002    0.0004    0.0016   -0.0076    0.0058   -0.0055
 AT.   6 AS X    -0.0007   -0.0055   -0.0061   -0.0044   -0.0072   -0.0059
            Y     0.0092   -0.0010    0.0055    0.0063    0.0052    0.0054
            Z     0.0002   -0.0004    0.0016    0.0076    0.0058    0.0055
 AT.   7 AS X     0.0007   -0.0055   -0.0061   -0.0044    0.0072    0.0059
            Y     0.0092    0.0010   -0.0055   -0.0063    0.0052    0.0054
            Z    -0.0002   -0.0004    0.0016    0.0076   -0.0058   -0.0055
 AT.   8 AS X     0.0007   -0.0055    0.0061   -0.0044   -0.0072    0.0059
            Y     0.0092    0.0010    0.0055   -0.0063   -0.0052    0.0054
            Z     0.0002    0.0004    0.0016   -0.0076   -0.0058    0.0055
 AT.   9 S  X     0.0264   -0.0289   -0.0146    0.0199   -0.0303    0.0236
            Y     0.0175   -0.0148    0.0193   -0.0218    0.0171   -0.0319
            Z     0.0169    0.0134   -0.0327    0.0311   -0.0251    0.0129
 AT.  10 S  X     0.0264   -0.0289    0.0146    0.0199    0.0303    0.0236
            Y     0.0175   -0.0148   -0.0193   -0.0218   -0.0171   -0.0319
            Z    -0.0169   -0.0134   -0.0327   -0.0311   -0.0251   -0.0129
 AT.  11 S  X    -0.0264   -0.0289    0.0146    0.0199   -0.0303   -0.0236
            Y     0.0175    0.0148    0.0193    0.0218   -0.0171   -0.0319
            Z     0.0169   -0.0134   -0.0327   -0.0311    0.0251    0.0129
 AT.  12 S  X    -0.0264   -0.0289   -0.0146    0.0199    0.0303   -0.0236
            Y     0.0175    0.0148   -0.0193    0.0218    0.0171   -0.0319
            Z    -0.0169    0.0134   -0.0327    0.0311    0.0251   -0.0129

 *******************************************************************************

 VIBRATIONAL TEMPERATURES (K) [MODE NUMBER;IRREP]

 TO MODES
   240.8 [   4;B1 ]   244.1 [   5;A1 ]   247.0 [   6;B2 ]   247.8 [   7;A2 ]
   270.0 [   8;A2 ]   273.7 [   9;A2 ]   341.6 [  10;A1 ]   341.9 [  11;B1 ]
   351.9 [  12;B2 ]   402.0 [  13;A1 ]   405.6 [  14;A2 ]   411.4 [  15;B2 ]
   414.9 [  16;B1 ]   416.7 [  17;B2 ]   417.0 [  18;A1 ]   423.8 [  19;B1 ]
   426.8 [  20;A1 ]   432.4 [  21;A2 ]   442.8 [  22;B2 ]   446.8 [  23;A2 ]
   454.3 [  24;B1 ]   526.3 [  25;A1 ]   533.9 [  26;B1 ]   536.7 [  27;B2 ]
   540.0 [  28;A2 ]   543.6 [  29;A2 ]   565.6 [  30;A1 ]   570.7 [  31;B1 ]
   581.5 [  32;B2 ]   596.0 [  33;A1 ]   625.1 [  34;B2 ]   627.7 [  35;A2 ]
   627.9 [  36;B1 ]

 *******************************************************************************

 HARMONIC VIBRATIONAL CONTRIBUTIONS TO THERMODYNAMIC FUNCTIONS AT GIVEN
 TEMPERATURE AND PRESSURE:

 (EL = ELECTRONIC ENERGY
  E0 = ZERO-POINT ENERGY
  ET = THERMAL CONTRIBUTION TO THE VIBRATIONAL ENERGY
  PV = PRESSURE * VOLUME
  TS = TEMPERATURE * ENTROPY)

                          AU/CELL             EV/CELL                 KJ/MOL
 EL            :  -16065.160066938979 -437155.229963846214   -42179071.81163906
 E0            :       0.023004167807       0.625975229996          60.39743407


 *******************************************************************************

 THERMODYNAMIC FUNCTIONS WITH VIBRATIONAL CONTRIBUTIONS

 AT (T =  298.15 K, P =   0.10132500E+00 MPA):

                          AU/CELL             EV/CELL                 KJ/MOL
 ET            :       0.013956584088       0.379777960570          36.64300636
 PV            :       0.000004005214       0.000108987406           0.01051569
 TS            :       0.023122304812       0.629189901319          60.70760273
 ET+PV-TS      :      -0.009161715510      -0.249302953343         -24.05408068
 EL+E0+ET+PV-TS:  -16065.146224486682 -437154.853291569569   -42179035.46828568

 OTHER THERMODYNAMIC FUNCTIONS:

                      mHARTREE/(CELL*K)     mEV/(CELL*K)              J/(MOL*K)
 ENTROPY       :       0.077552590346       2.110313269560         203.61429726
 HEAT CAPACITY :       0.086753539974       2.360683837536         227.77138710

 *******************************************************************************
 TTTTTTTTTTTTTTTTTTTTTTTTTTTTTT END         TELAPSE    17562.39 TCPU    15330.11
 EEEEEEEEEE TERMINATION  DATE 29 05 2023 TIME 22:55:59.2
