         256 PROCESSORS WORKING

         
 *******************************************************************************
 *                                                                             *
 *                               CRYSTAL23                                     *
 *                      public : 1.0.1 - October 2022                          *
 *                       HTTP://WWW.CRYSTAL.UNITO.IT                           *
 *                                                                             *
 *                              MAIN AUTHORS                                   *
 *                                                                             *
 *  R. DOVESI(1,11), V.R. SAUNDERS(2), C. ROETTI(1,11), R. ORLANDO(1,11),      *
 *  C.M. ZICOVICH-WILSON(1,3), F. PASCALE(4), B. CIVALLERI(1,11),              *
 *  K. DOLL(5), N.M. HARRISON(6), I.J. BUSH(7), Ph. D'ARCO(8),                 *
 *  M. LLUNELL(9), M. CAUSA'(10), Y. NOEL(8), L. MASCHIO(1,11), A. ERBA(1,11)  *
 *  M. RE'RAT(14), S. CASASSA(1,11), B.G. SEARLE(2), J.K. DESMARAIS(1)         *
 *                                                                             *
 *        CONTRIBUTIONS TO THE CODE HAVE ALSO BEEN GIVEN BY                    *
 *                                                                             *
 *  M. FERRABONE(1,11), M. DE LA PIERRE(1,11), M. FERRERO(1,11),               *
 *  J. BAIMA(1,11), E. ALBANESE(1,11), M.F. PEINTINGER(12), R. BAST(13),       *
 *  B. KIRTMAN(15), V. LACIVITA(1,11), R. DEMICHELIS(1,16)                     *
 *  G. BRANDEBURG(17), S. SALUSTRO(1,11), G. SANSONE(1,11)                     *
 *  M.T. RUGGIERO(18), L.E. DAGA(1), L. DONA'(1), A. COSSARD(1)                *
 *                                                                             *
 * (1) THEORETICAL CHEMISTRY GROUP - UNIVERSITA' DI TORINO - TORINO (ITALY)    *
 * (2) SCIENTIFIC COMPUTING DEPARTMENT - STFC DARESBURY (UK)                   *
 * (3) UNIVERSIDAD AUTONOMA DEL ESTADO DE MORELOS - CUERNAVACA (MEXICO)        *
 * (4) UNIVERSITE' DE LORRAINE - NANCY (FRANCE)                                *
 * (5) UNIVERSITAET STUTTGART- STUTTGART (GERMANY)                             *
 * (6) IMPERIAL COLLEGE - LONDON (UK)                                          *
 * (7) SCIENTIFIC COMPUTING DEPARTMENT - STFC RAL (UK)                         *
 * (8) UPMC - SORBONNE UNIVERSITES - PARIS (FRANCE)                            *
 * (9) UNIVERSIDAD DE BARCELONA - BARCELONA (SPAIN)                            *
 *(10) UNIVERSITA' DI NAPOLI "FEDERICO II" - NAPOLI (ITALY)                    *
 *(11) NIS - NANOSTRUCTURED INTERFACES AND SURFACES - TORINO (ITALY)           *
 *(12) MPI FUER CHEMISCHE ENERGIEKONVERSION - MUELHEIM AN DER RUHR (GERMANY)   *
 *(13) UNIVERSITY OF TROMSO - TROMSO (NORWAY)                                  *
 *(14) UNIVERSITE' DE PAU ET DES PAYS DE L'ADOUR - PAU (FRANCE)                *
 *(15) UNIVERSITY OF CALIFORNIA SANTA BARBARA - SANTA BARBARA (USA)            *
 *(16) CURTIN UNIVERSITY - PERTH (AUSTRALIA)                                   *
 *(17) UNIVERSITY COLLEGE LONDON - LONDON (UK)                                 *
 *(18) UNIVERSITY OF VERMONT - BURLINGTON (USA)                                *
 *                                                                             *
 *******************************************************************************
 EEEEEEEEEE STARTING  DATE 05 09 2023 TIME 17:20:35.8
 ICSD_CollCode38979.cif                                                          

 CRYSTAL CALCULATION
 (INPUT ACCORDING TO THE INTERNATIONAL TABLES FOR X-RAY CRYSTALLOGRAPHY)
 CRYSTAL FAMILY                       :  CUBIC       
 CRYSTAL CLASS  (GROTH - 1921)        :  CUBIC DYAKISDODECAHEDRAL             

 SPACE GROUP (CENTROSYMMETRIC)        :  P A 3           

 LATTICE PARAMETERS  (ANGSTROMS AND DEGREES) - CONVENTIONAL CELL
        A           B           C        ALPHA        BETA       GAMMA
     4.89314     4.89314     4.89314    90.00000    90.00000    90.00000


 NUMBER OF IRREDUCIBLE ATOMS IN THE CONVENTIONAL CELL:    2

 INPUT COORDINATES

 ATOM AT. N.              COORDINATES
   1  30     5.000000000000E-01  5.000000000000E-01  0.000000000000E+00
   2   8     8.691000000000E-02  9.130900000000E-01  4.130900000000E-01

 *******************************************************************************

 << INFORMATION >>: FROM NOW ON, ALL COORDINATES REFER TO THE PRIMITIVE CELL

 *******************************************************************************

 LATTICE PARAMETERS  (ANGSTROMS AND DEGREES) - PRIMITIVE CELL
       A          B          C        ALPHA      BETA     GAMMA        VOLUME
    4.89314    4.89314    4.89314    90.00000  90.00000  90.00000    117.155566

 COORDINATES OF THE EQUIVALENT ATOMS (FRACTIONAL UNITS)

 N. ATOM EQUIV AT. N.          X                  Y                  Z

   1   1   1   30 ZN   -5.00000000000E-01 -5.00000000000E-01  0.00000000000E+00
   2   1   2   30 ZN    0.00000000000E+00  5.00000000000E-01 -5.00000000000E-01
   3   1   3   30 ZN    0.00000000000E+00  0.00000000000E+00  0.00000000000E+00
   4   1   4   30 ZN    5.00000000000E-01  0.00000000000E+00 -5.00000000000E-01

   5   2   1    8 O     8.69100000000E-02 -8.69100000000E-02  4.13090000000E-01
   6   2   2    8 O     4.13090000000E-01  8.69100000000E-02 -8.69100000000E-02
   7   2   3    8 O    -4.13090000000E-01 -4.13090000000E-01 -4.13090000000E-01
   8   2   4    8 O    -8.69100000000E-02  4.13090000000E-01  8.69100000000E-02
   9   2   5    8 O    -8.69100000000E-02  8.69100000000E-02 -4.13090000000E-01
  10   2   6    8 O    -4.13090000000E-01 -8.69100000000E-02  8.69100000000E-02
  11   2   7    8 O     4.13090000000E-01  4.13090000000E-01  4.13090000000E-01
  12   2   8    8 O     8.69100000000E-02 -4.13090000000E-01 -8.69100000000E-02

 NUMBER OF SYMMETRY OPERATORS         :   24
 *******************************************************************************
 * GEOMETRY EDITING - INPUT COORDINATES ARE GIVEN IN ANGSTROM         
 *******************************************************************************

 GEOMETRY NOW FULLY CONSISTENT WITH THE GROUP

 FRQFRQFRQFRQFRQFRQFRQFRQFRQFRQFRQFRQFRQFRQFRQFRQFRQFRQFRQFRQFRQFRQFRQFRQFRQFRQ

                       FREQUENCY CALCULATION

 OPTIMIZATION PERFORMED BEFORE FREQUENCIES CALCULATION
 *******************************************************************************
 INFORMATION **** NEW DEFAULT **** FINALRUN 4 FOR GEOMETRY OPTIMIZATIONS
 INFORMATION **** NEW DEFAULT **** OPTGEOM OPTIMIZES ATOMIC COORDINATES ONLY
 INFORMATION **** NEW DEFAULT **** TOL. ON ATOMIC DISP TO REDEFINE REF. GEOMETRY: 0.8 Angs
 INFORMATION **** NEW DEFAULT **** N POINTS TO REDEFINE REF. GEOMETRY: N OF OPT DEGS OF FREEDOM
 INFORMATION **** NEW DEFAULT **** TOL. ON ENERGY TO REDEFINE REF. GEOMETRY: 10**-3*(5*N. ATOMS)
 INFORMATION **** FULLOPTG **** FULL OPTIMIZATION (ATOMS AND CELL PARAMETERS)

 IMPORTANT INFORMATION:
 THE COORDINATE SYSTEM ADOPTED IN THE OPTIMIZATION IS NOT IN
 GENERAL HOMOGENEOUS UNITS. FOR THIS REASON THE GRADIENT AND 
 HESSIAN MATRIX IN TERMS OF THIS SYSTEM ARE GIVEN WITHOUT
 UNITS. FOR MORE DETAILS SEE THE MANUAL.

 *******************************************************************************
 COMBINED CELL/ATOM OPTIMIZATION CONTROL

 INITIAL TRUST RADIUS         0.50000 MAXIMUM TRUST RADIUS               0.50000
 MAXIMUM GRADIENT COMPONENT   0.00005 MAXIMUM DISPLACEMENT COMPONENT     0.00018
 R.M.S. OF GRADIENT COMPONENT 0.00003 R.M.S. OF DISPLACEMENT COMPONENTS  0.00012
 THRESHOLD ON ENERGY CHANGE 0.100E-06 EXTRAPOLATING POLYNOMIAL ORDER           2
 MAXIMUM ALLOWED NUMBER OF STEPS   -1 SORTING OF ENERGY POINTS:               NO
 ANALYTICAL  GRADIENT                 HESSIAN UPDATING                      BFGS
 STEP SIZE NUMERICAL GRADIENT 0.00100
 INITIAL HESSIAN MATRIX: SCHLEGEL MODEL 2
 *******************************************************************************

 INFORMATION **** INPFREQ **** IR INTENSITIES EVALUATED THROUGH CPHF APPROACH
 INFORMATION **** INPFREQ **** NEW DEFAULT - IMPOSING ECKART CONDITIONS TO THE HESSIAN

 GCALCO - MAX INDICES DIRECT LATTICE VECTOR    14    14    14
 NO.OF VECTORS CREATED 6999 STARS  120 RMAX   109.79841 BOHR

 GEOMETRY FOR WAVE FUNCTION - DIMENSIONALITY OF THE SYSTEM    3
 (NON PERIODIC DIRECTION: LATTICE PARAMETER FORMALLY SET TO 500)
 *******************************************************************************
 LATTICE PARAMETERS (ANGSTROMS AND DEGREES) - BOHR = 0.5291772083 ANGSTROM
 PRIMITIVE CELL - CENTRING CODE 1/0 VOLUME=   117.155566 - DENSITY  5.438 g/cm^3
         A              B              C           ALPHA      BETA       GAMMA 
     4.89314000     4.89314000     4.89314000    90.000000  90.000000  90.000000
 *******************************************************************************
 ATOMS IN THE ASYMMETRIC UNIT    2 - ATOMS IN THE UNIT CELL:   12
     ATOM                 X/A                 Y/B                 Z/C    
 *******************************************************************************
      1 T  30 ZN    5.000000000000E-01  5.000000000000E-01  0.000000000000E+00
      2 F  30 ZN    0.000000000000E+00  5.000000000000E-01  5.000000000000E-01
      3 F  30 ZN    0.000000000000E+00  0.000000000000E+00  0.000000000000E+00
      4 F  30 ZN    5.000000000000E-01  0.000000000000E+00  5.000000000000E-01
      5 T   8 O     8.691000000000E-02 -8.691000000000E-02  4.130900000000E-01
      6 F   8 O     4.130900000000E-01  8.691000000000E-02 -8.691000000000E-02
      7 F   8 O    -4.130900000000E-01 -4.130900000000E-01 -4.130900000000E-01
      8 F   8 O    -8.691000000000E-02  4.130900000000E-01  8.691000000000E-02
      9 F   8 O    -8.691000000000E-02  8.691000000000E-02 -4.130900000000E-01
     10 F   8 O    -4.130900000000E-01 -8.691000000000E-02  8.691000000000E-02
     11 F   8 O     4.130900000000E-01  4.130900000000E-01  4.130900000000E-01
     12 F   8 O     8.691000000000E-02 -4.130900000000E-01 -8.691000000000E-02

 T = ATOM BELONGING TO THE ASYMMETRIC UNIT

 ****   24 SYMMOPS - TRANSLATORS IN FRACTIONAL UNITS
 **** MATRICES AND TRANSLATORS IN THE CRYSTALLOGRAPHIC REFERENCE FRAME
   V INV                    ROTATION MATRICES                   TRANSLATORS
   1   1  1.00  0.00  0.00  0.00  1.00  0.00  0.00  0.00  1.00  0.00  0.00  0.00
   2   2 -1.00  0.00  0.00  0.00 -1.00  0.00  0.00  0.00  1.00  0.50  0.00  0.50
   3   3  1.00  0.00  0.00  0.00 -1.00  0.00  0.00  0.00 -1.00  0.50  0.50  0.00
   4   4 -1.00  0.00  0.00  0.00  1.00  0.00  0.00  0.00 -1.00  0.00  0.50  0.50
   5   6  0.00  0.00  1.00  1.00  0.00  0.00  0.00  1.00  0.00  0.00  0.00  0.00
   6   5  0.00  1.00  0.00  0.00  0.00  1.00  1.00  0.00  0.00  0.00  0.00  0.00
   7   8  0.00  0.00 -1.00 -1.00  0.00  0.00  0.00  1.00  0.00  0.50  0.00  0.50
   8   7  0.00 -1.00  0.00  0.00  0.00  1.00 -1.00  0.00  0.00  0.00  0.50  0.50
   9  10  0.00  0.00  1.00 -1.00  0.00  0.00  0.00 -1.00  0.00  0.50  0.50  0.00
  10   9  0.00 -1.00  0.00  0.00  0.00 -1.00  1.00  0.00  0.00  0.50  0.00  0.50
  11  12  0.00  0.00 -1.00  1.00  0.00  0.00  0.00 -1.00  0.00  0.00  0.50  0.50
  12  11  0.00  1.00  0.00  0.00  0.00 -1.00 -1.00  0.00  0.00  0.50  0.50  0.00
  13  13 -1.00  0.00  0.00  0.00 -1.00  0.00  0.00  0.00 -1.00  0.00  0.00  0.00
  14  14  1.00  0.00  0.00  0.00  1.00  0.00  0.00  0.00 -1.00  0.50  0.00  0.50
  15  15 -1.00  0.00  0.00  0.00  1.00  0.00  0.00  0.00  1.00  0.50  0.50  0.00
  16  16  1.00  0.00  0.00  0.00 -1.00  0.00  0.00  0.00  1.00  0.00  0.50  0.50
  17  18  0.00  0.00 -1.00 -1.00  0.00  0.00  0.00 -1.00  0.00  0.00  0.00  0.00
  18  17  0.00 -1.00  0.00  0.00  0.00 -1.00 -1.00  0.00  0.00  0.00  0.00  0.00
  19  20  0.00  0.00  1.00  1.00  0.00  0.00  0.00 -1.00  0.00  0.50  0.00  0.50
  20  19  0.00  1.00  0.00  0.00  0.00 -1.00  1.00  0.00  0.00  0.00  0.50  0.50
  21  22  0.00  0.00 -1.00  1.00  0.00  0.00  0.00  1.00  0.00  0.50  0.50  0.00
  22  21  0.00  1.00  0.00  0.00  0.00  1.00 -1.00  0.00  0.00  0.50  0.00  0.50
  23  24  0.00  0.00  1.00 -1.00  0.00  0.00  0.00  1.00  0.00  0.00  0.50  0.50
  24  23  0.00 -1.00  0.00  0.00  0.00  1.00  1.00  0.00  0.00  0.50  0.50  0.00

 DIRECT LATTICE VECTORS CARTESIAN COMPONENTS (ANGSTROM)
          X                    Y                    Z
   0.489314000000E+01   0.000000000000E+00   0.000000000000E+00
   0.000000000000E+00   0.489314000000E+01   0.000000000000E+00
   0.000000000000E+00   0.000000000000E+00   0.489314000000E+01


 CARTESIAN COORDINATES - PRIMITIVE CELL
 *******************************************************************************
 *      ATOM          X(ANGSTROM)         Y(ANGSTROM)         Z(ANGSTROM)
 *******************************************************************************
    1    30 ZN    2.446570000000E+00  2.446570000000E+00  0.000000000000E+00
    2    30 ZN    0.000000000000E+00  2.446570000000E+00  2.446570000000E+00
    3    30 ZN    0.000000000000E+00  0.000000000000E+00  0.000000000000E+00
    4    30 ZN    2.446570000000E+00  0.000000000000E+00  2.446570000000E+00
    5     8 O     4.252627974000E-01 -4.252627974000E-01  2.021307202600E+00
    6     8 O     2.021307202600E+00  4.252627974000E-01 -4.252627974000E-01
    7     8 O    -2.021307202600E+00 -2.021307202600E+00 -2.021307202600E+00
    8     8 O    -4.252627974000E-01  2.021307202600E+00  4.252627974000E-01
    9     8 O    -4.252627974000E-01  4.252627974000E-01 -2.021307202600E+00
   10     8 O    -2.021307202600E+00 -4.252627974000E-01  4.252627974000E-01
   11     8 O     2.021307202600E+00  2.021307202600E+00  2.021307202600E+00
   12     8 O     4.252627974000E-01 -2.021307202600E+00 -4.252627974000E-01

 *******************************************************************************
 LOCAL ATOMIC FUNCTIONS BASIS SET
 *******************************************************************************
   ATOM   X(AU)   Y(AU)   Z(AU)  N. TYPE  EXPONENT  S COEF   P COEF   D/F/G COEF
 *******************************************************************************
   1 ZN   4.623   4.623   0.000
                                  1 S  
                                         4.059E+05 2.244E-04 0.000E+00 0.000E+00
                                         6.085E+04 1.740E-03 0.000E+00 0.000E+00
                                         1.385E+04 9.051E-03 0.000E+00 0.000E+00
                                         3.920E+03 3.682E-02 0.000E+00 0.000E+00
                                         1.276E+03 1.200E-01 0.000E+00 0.000E+00
                                         4.587E+02 2.858E-01 0.000E+00 0.000E+00
                                         1.783E+02 4.109E-01 0.000E+00 0.000E+00
                                         7.061E+01 2.182E-01 0.000E+00 0.000E+00
                                  2 S  
                                         4.439E+02-2.493E-02 0.000E+00 0.000E+00
                                         1.376E+02-1.182E-01 0.000E+00 0.000E+00
                                         2.227E+01 5.537E-01 0.000E+00 0.000E+00
                                         9.522E+00 5.263E-01 0.000E+00 0.000E+00
                                  3 S  
                                         1.487E+01-2.293E-01 0.000E+00 0.000E+00
                                         2.465E+00 7.114E-01 0.000E+00 0.000E+00
                                  4 S  
                                         1.011E+00 1.000E+00 0.000E+00 0.000E+00
                                  5 S  
                                         3.230E-01 1.000E+00 0.000E+00 0.000E+00
                                  6 S  
                                         1.517E-01 1.000E+00 0.000E+00 0.000E+00
                           7-     9 P  
                                         2.205E+03 0.000E+00 2.336E-03 0.000E+00
                                         5.224E+02 0.000E+00 1.903E-02 0.000E+00
                                         1.677E+02 0.000E+00 8.996E-02 0.000E+00
                                         6.267E+01 0.000E+00 2.611E-01 0.000E+00
                                         2.511E+01 0.000E+00 4.235E-01 0.000E+00
                                         1.023E+01 0.000E+00 2.462E-01 0.000E+00
                          10-    12 P  
                                         4.071E+01 0.000E+00-3.003E-02 0.000E+00
                                         5.625E+00 0.000E+00 5.558E-01 0.000E+00
                                         2.228E+00 0.000E+00 9.558E-01 0.000E+00
                          13-    15 P  
                                         1.160E+00 0.000E+00 1.000E+00 0.000E+00
                          16-    18 P  
                                         2.625E-01 0.000E+00 1.000E+00 0.000E+00
                          19-    23 D  
                                         8.855E+01 0.000E+00 0.000E+00 1.273E-02
                                         2.572E+01 0.000E+00 0.000E+00 7.939E-02
                                         9.128E+00 0.000E+00 0.000E+00 2.449E-01
                                         3.431E+00 0.000E+00 0.000E+00 4.039E-01
                          24-    28 D  
                                         1.186E+00 0.000E+00 0.000E+00 1.000E+00
                          29-    33 D  
                                         3.309E-01 0.000E+00 0.000E+00 1.000E+00
                          34-    40 F  
                                         2.614E+00 0.000E+00 0.000E+00 1.000E+00
   2 ZN   0.000   4.623   4.623
   3 ZN   0.000   0.000   0.000
   4 ZN   4.623   0.000   4.623
   5 O    0.804  -0.804   3.820
                                161 S  
                                         2.703E+04 2.173E-04 0.000E+00 0.000E+00
                                         4.052E+03 1.684E-03 0.000E+00 0.000E+00
                                         9.223E+02 8.740E-03 0.000E+00 0.000E+00
                                         2.612E+02 3.524E-02 0.000E+00 0.000E+00
                                         8.535E+01 1.115E-01 0.000E+00 0.000E+00
                                         3.104E+01 2.559E-01 0.000E+00 0.000E+00
                                162 S  
                                         1.226E+01 3.977E-01 0.000E+00 0.000E+00
                                         4.999E+00 2.463E-01 0.000E+00 0.000E+00
                                163 S  
                                         1.099E+00 1.000E+00 0.000E+00 0.000E+00
                                164 S  
                                         3.566E-01 1.000E+00 0.000E+00 0.000E+00
                         165-   167 P  
                                         6.327E+01 0.000E+00 6.069E-03 0.000E+00
                                         1.463E+01 0.000E+00 4.191E-02 0.000E+00
                                         4.450E+00 0.000E+00 1.615E-01 0.000E+00
                                         1.528E+00 0.000E+00 3.571E-01 0.000E+00
                         168-   170 P  
                                         5.490E-01 0.000E+00 1.000E+00 0.000E+00
                         171-   173 P  
                                         1.859E-01 0.000E+00 1.000E+00 0.000E+00
                         174-   178 D  
                                         4.535E-01 0.000E+00 0.000E+00 1.000E+00
   6 O    3.820   0.804  -0.804
   7 O   -3.820  -3.820  -3.820
   8 O   -0.804   3.820   0.804
   9 O   -0.804   0.804  -3.820
  10 O   -3.820  -0.804   0.804
  11 O    3.820   3.820   3.820
  12 O    0.804  -3.820  -0.804
 INFORMATION **** SET_MPP **** PCRYSTAL CALCULATION
 INFORMATION **** READM2 **** NEW DEFAULT: FOCK/KS MATRIX MIXING SET TO 30 %
 INFORMATION **** READM2 **** NEW DEFAULT: FULL DIRECT SCF MODE
 INFORMATION **** READM2 **** NEW DEFAULT: COULOMB BIPOLAR BUFFER SET TO 32 Mb
 INFORMATION **** READM2 **** NEW DEFAULT: EXCHANGE BIPOLAR BUFFER SET TO 32 Mb

 *******************************************************************************
 NEW DEFAULT: DFT INTEGRATION GRID INCREASED TO XLGRID
 NEW DEFAULT: DIIS ACCELERATOR ACTIVE
 USE KEYWORD NODIIS TO TURN IT OFF
 *******************************************************************************

 INFORMATION **** RDDFTP **** MAX N. OF POINTS ALLOWED IN A BATCH FOR NUMERICAL INTEGRATION         200
 INFORMATION **** TOLINTEG **** COULOMB AND EXCHANGE SERIES TOLERANCES MODIFIED
 INFORMATION **** TOLDEE **** SCF TOL ON TOTAL ENERGY SET TO          11
 INFORMATION **** EXCHSIZE **** EXCHANGE BIPOLAR BUFFER SIZE SET TO    12012489
 INFORMATION **** MAXCYCLE **** MAX NUMBER OF SCF CYCLES SET TO         150
 *******************************************************************************
 N. OF ATOMS PER CELL        12  COULOMB OVERLAP TOL         (T1) 10**   -7
 NUMBER OF SHELLS           120  COULOMB PENETRATION TOL     (T2) 10**   -7
 NUMBER OF AO               304  EXCHANGE OVERLAP TOL        (T3) 10**   -7
 N. OF ELECTRONS PER CELL   184  EXCHANGE PSEUDO OVP (F(G))  (T4) 10**   -9
 CORE ELECTRONS PER CELL     88  EXCHANGE PSEUDO OVP (P(G))  (T5) 10**  -30
 N. OF SYMMETRY OPERATORS    24  POLE ORDER IN MONO ZONE                  4
 *******************************************************************************
 TYPE OF CALCULATION :  RESTRICTED CLOSED SHELL
 KOHN-SHAM HAMILTONIAN

 (EXCHANGE)[CORRELATION] FUNCTIONAL:(PERDEW-BURKE-ERNZERHOF)[PERDEW-BURKE-ERNZERHOF]


 HYBRID EXCHANGE - PERCENTAGE OF FOCK EXCHANGE    25.0000

 CAPPA:IS1  8;IS2  8;IS3  8; K PTS MONK NET  45; SYMMOPS:K SPACE  24;G SPACE  24

 *******************************************************************************
 MAX NUMBER OF SCF CYCLES     150  CONVERGENCE ON DELTAP        10**-21
 WEIGHT OF F(I) IN F(I+1)      30% CONVERGENCE ON ENERGY        10**-11
 SHRINK. FACT.(MONKH.)    8  8  8  NUMBER OF K POINTS IN THE IBZ     45
 SHRINKING FACTOR(GILAT NET)    8  NUMBER OF K POINTS(GILAT NET)     45
 *******************************************************************************
 *** K POINTS COORDINATES (OBLIQUE COORDINATES IN UNITS OF IS =  8)
   1-R(  0  0  0)   2-C(  1  0  0)   3-C(  2  0  0)   4-C(  3  0  0)
   5-R(  4  0  0)   6-C(  1  1  0)   7-C(  2  1  0)   8-C(  3  1  0)
   9-C(  4  1  0)  10-C(  1  2  0)  11-C(  2  2  0)  12-C(  3  2  0)
  13-C(  4  2  0)  14-C(  1  3  0)  15-C(  2  3  0)  16-C(  3  3  0)
  17-C(  4  3  0)  18-C(  1  4  0)  19-C(  2  4  0)  20-C(  3  4  0)
  21-R(  4  4  0)  22-C(  1  1  1)  23-C(  2  1  1)  24-C(  3  1  1)
  25-C(  4  1  1)  26-C(  2  2  1)  27-C(  3  2  1)  28-C(  4  2  1)
  29-C(  2  3  1)  30-C(  3  3  1)  31-C(  4  3  1)  32-C(  2  4  1)
  33-C(  3  4  1)  34-C(  4  4  1)  35-C(  2  2  2)  36-C(  3  2  2)
  37-C(  4  2  2)  38-C(  3  3  2)  39-C(  4  3  2)  40-C(  3  4  2)
  41-C(  4  4  2)  42-C(  3  3  3)  43-C(  4  3  3)  44-C(  4  4  3)
  45-R(  4  4  4)

 DIRECT LATTICE VECTORS COMPON. (A.U.)     RECIP. LATTICE VECTORS COMPON. (A.U.) 
        X            Y            Z              X            Y            Z
    9.2466945    0.0000000    0.0000000      0.6795061    0.0000000    0.0000000
    0.0000000    9.2466945    0.0000000      0.0000000    0.6795061    0.0000000
    0.0000000    0.0000000    9.2466945      0.0000000    0.0000000    0.6795061

 DISK SPACE FOR EIGENVECTORS (FTN 10)     7947776 REALS

 SYMMETRY ADAPTION OF THE BLOCH FUNCTIONS ENABLED
 TTTTTTTTTTTTTTTTTTTTTTTTTTTTTT gordsh1     TELAPSE        4.50 TCPU        2.01

 MATRIX SIZE: P(G) 1978224, F(G)  160232, P(G) IRR   46813, F(G) IRR    8652
 MAX G-VECTOR INDEX FOR 1- AND 2-ELECTRON INTEGRALS 359

 TTTTTTTTTTTTTTTTTTTTTTTTTTTTTT INPUT       TELAPSE        4.51 TCPU        2.01

 NEIGHBORS OF THE NON-EQUIVALENT ATOMS

 N = NUMBER OF NEIGHBORS AT DISTANCE R
    ATOM  N     R/ANG      R/AU   NEIGHBORS (ATOM LABELS AND CELL INDICES)
   1 ZN   6     2.1089     3.9852    6 O    0 0 0    7 O    1 1 0    8 O    1 0 0
                                    10 O    1 1 0   11 O    0 0 0   12 O    0 1 0
   1 ZN   6     2.9341     5.5447    6 O    0 1 0    7 O    1 1 1    8 O    0 0 0
                                    10 O    1 0 0   11 O    0 0-1   12 O    1 1 0
   1 ZN  12     3.4600     6.5384    2 ZN   0 0 0    2 ZN   1 0 0    2 ZN   0 0-1
                                     2 ZN   1 0-1    3 ZN   0 1 0    3 ZN   0 0 0
                                     3 ZN   1 1 0    3 ZN   1 0 0    4 ZN   0 0 0
                                     4 ZN   0 0-1    4 ZN   0 1 0    4 ZN   0 1-1
   1 ZN   2     3.5010     6.6159    5 O    0 1 0    9 O    1 0 0
   1 ZN   6     4.0520     7.6572    5 O    0 0 0    5 O    1 1 0    5 O    0 1-1
                                     9 O    1 1 0    9 O    0 0 0    9 O    1 0 1
   1 ZN   6     4.5366     8.5729    5 O    1 0 0    5 O    0 0-1    5 O    1 1-1
                                     9 O    0 1 0    9 O    1 1 1    9 O    0 0 1

   5 O    1     1.4732     2.7839    9 O    0 0 1
   5 O    3     2.1089     3.9852    2 ZN   0-1 0    3 ZN   0 0 0    4 ZN   0 0 0
   5 O    6     2.9211     5.5202   10 O    0 0 0   10 O    1 0 0   11 O    0 0 0
                                    11 O    0-1 0   12 O    0 0 0   12 O    0 0 1
   5 O    3     2.9341     5.5447    2 ZN   0 0 0    3 ZN   0 0 1    4 ZN  -1 0 0
   5 O    6     3.0424     5.7494    6 O    0 0 0    6 O    0 0 1    7 O    1 0 1
                                     7 O    0 0 1    8 O    0 0 0    8 O    0-1 0
   5 O    1     3.5010     6.6159    1 ZN   0-1 0


 SYMMETRY ALLOWED ELASTIC DISTORTION 1
  0.5773503  0.0000000  0.0000000
  0.0000000  0.5773503  0.0000000
  0.0000000  0.0000000  0.5773503

 SYMMETRY ALLOWED INTERNAL DEGREE(S) OF FREEDOM:   1
 TTTTTTTTTTTTTTTTTTTTTTTTTTTTTT SYMM        TELAPSE        4.55 TCPU        2.05
 TTTTTTTTTTTTTTTTTTTTTTTTTTTTTT INT_SCREEN  TELAPSE        4.56 TCPU        2.06

 *******************************************************************************
 *                             OPTIMIZATION STARTS                             *
 *******************************************************************************
 RECLASIFICATION OF INDICES FOR INTEGRAL CALC ACCORDING TO DIFFERENT CRITERIA:
           FIXDELTE                  FIXDELTX              FIXDELTN
          0.10000000               0.80000000                 10
 *******************************************************************************

 *******************************************************************************
 COORDINATE AND CELL OPTIMIZATION - POINT    1

 DFT PARAMETERS

     ATOM       ELECTRONS   NET CHARGE   R(ANGSTROM)
   1  30  ZN     30.0000      0.0000     1.37000000
   5   8  O       8.0000      0.0000     0.74000000

 SIZE OF GRID=      23824
 TTTTTTTTTTTTTTTTTTTTTTTTTTTTTT MAKE_GRID2  TELAPSE        7.04 TCPU        4.53
 BECKE WEIGHT FUNCTION
 RADSAFE =     2.00
 TOLERANCES - DENSITY:10**- 6; POTENTIAL:10**- 9; GRID WGT:10**-14

 RADIAL INTEGRATION  - INTERVALS (POINTS,UPPER LIMIT):            1( 99,  4.0*R)

 ANGULAR INTEGRATION - INTERVALS (ACCURACY LEVEL [N. POINTS] UPPER LIMIT):
  1(  6[ 146]   0.2)  2( 11[ 302]   0.5)  3( 14[ 590]   0.9)  4( 18[1454]   3.5)
  5( 14[ 590]9999.0)
 TTTTTTTTTTTTTTTTTTTTTTTTTTTTTT INT_CALC    TELAPSE        7.06 TCPU        4.55

 *******************************************************************************
 ICSD_CollCode38979.cif                                                          
 CRYSTAL - SCF - TYPE OF CALCULATION :  RESTRICTED CLOSED SHELL
 *******************************************************************************

 CAPPA:IS1  8;IS2  8;IS3  8; K PTS MONK NET  45; SYMMOPS:K SPACE  24;G SPACE  24

 TTTTTTTTTTTTTTTTTTTTTTTTTTTTTT SDIK        TELAPSE        7.08 TCPU        4.57

 AAAAAAAAAAAAAAAAAAAAAAAAAAAAAAAAAAAAAAAAAAAAAAAAAAAAAAAAAAAAAAAAAAAAAAAAAAAAAAA
         ATOMIC WAVEFUNCTION(S)


 NUCLEAR CHARGE 30.0  SYMMETRY SPECIES            S    P    D
 N. ELECTRONS   30.0  NUMBER OF PRIMITIVE GTOS   17   11    6
                      NUMBER OF CONTRACTED GTOS   6    4    3
                      NUMBER OF CLOSED SHELLS     4    2    1
                      OPEN SHELL OCCUPATION       0    0    0

  ZNUC  SCFIT    TOTAL HF ENERGY   KINETIC ENERGY   VIRIAL THEOREM             ACCURACY
  30.0    18    -1.777712574E+03  1.776653869E+03 -2.000595898E+00  2.8E-06

 NUCLEAR CHARGE  8.0  SYMMETRY SPECIES            S    P
 N. ELECTRONS    8.0  NUMBER OF PRIMITIVE GTOS   10    6
                      NUMBER OF CONTRACTED GTOS   4    3
                      NUMBER OF CLOSED SHELLS     2    0
                      OPEN SHELL OCCUPATION       0    4

  ZNUC  SCFIT    TOTAL HF ENERGY   KINETIC ENERGY   VIRIAL THEOREM             ACCURACY
   8.0    13    -7.480300556E+01  7.484348362E+01 -1.999459164E+00  4.9E-06

 AAAAAAAAAAAAAAAAAAAAAAAAAAAAAAAAAAAAAAAAAAAAAAAAAAAAAAAAAAAAAAAAAAAAAAAAAAAAAAA

 TTTTTTTTTTTTTTTTTTTTTTTTTTTTTT MOQGAD      TELAPSE        7.08 TCPU        4.57
 TTTTTTTTTTTTTTTTTTTTTTTTTTTTTT SHELLXN     TELAPSE        9.60 TCPU        7.07
 TTTTTTTTTTTTTTTTTTTTTTTTTTTTTT MONMO3      TELAPSE        9.60 TCPU        7.08
 NUMERICALLY INTEGRATED DENSITY    184.0000102471
 TTTTTTTTTTTTTTTTTTTTTTTTTTTTTT NUMDFT      TELAPSE        9.75 TCPU        7.22
 CYC   0 ETOT(AU) -7.718631703017E+03 DETOT -7.72E+03 tst  0.00E+00 PX  1.00E+00
 TTTTTTTTTTTTTTTTTTTTTTTTTTTTTT DIIS        TELAPSE        9.76 TCPU        7.23
 TTTTTTTTTTTTTTTTTTTTTTTTTTTTTT FDIK        TELAPSE        9.83 TCPU        7.30
 INSULATING STATE
 TOP OF VALENCE BANDS -    BAND     92; K    1; EIG -2.2397665E-01 AU
 BOTTOM OF VIRTUAL BANDS - BAND     93; K   23; EIG -1.0191442E-01 AU
 INDIRECT ENERGY BAND GAP:   3.3215 eV
 BOTTOM OF VIRTUAL BANDS - BAND     93; K    1; EIG -7.8436323E-02 AU
 TTTTTTTTTTTTTTTTTTTTTTTTTTTTTT PDIG        TELAPSE        9.90 TCPU        7.37
 TTTTTTTTTTTTTTTTTTTTTTTTTTTTTT MOQGAD      TELAPSE        9.90 TCPU        7.37
 TTTTTTTTTTTTTTTTTTTTTTTTTTTTTT SHELLXN     TELAPSE       12.50 TCPU        9.95
 TTTTTTTTTTTTTTTTTTTTTTTTTTTTTT MONMO3      TELAPSE       12.51 TCPU        9.96
 NUMERICALLY INTEGRATED DENSITY    184.0000105703
 TTTTTTTTTTTTTTTTTTTTTTTTTTTTTT NUMDFT      TELAPSE       12.65 TCPU       10.10
 CYC   1 ETOT(AU) -7.717763484442E+03 DETOT  8.68E-01 tst  0.00E+00 PX  1.00E+00
 TTTTTTTTTTTTTTTTTTTTTTTTTTTTTT DIIS        TELAPSE       12.66 TCPU       10.11
 DIIS TEST: 0.23057E+01 AT SCF   CYCLE   1 - MIX   30 %
 TTTTTTTTTTTTTTTTTTTTTTTTTTTTTT FDIK        TELAPSE       12.78 TCPU       10.23
 INSULATING STATE
 TOP OF VALENCE BANDS -    BAND     92; K    1; EIG -1.5996290E-01 AU
 BOTTOM OF VIRTUAL BANDS - BAND     93; K   23; EIG  7.7330354E-03 AU
 INDIRECT ENERGY BAND GAP:   4.5632 eV
 BOTTOM OF VIRTUAL BANDS - BAND     93; K    1; EIG  2.4166469E-02 AU
 TTTTTTTTTTTTTTTTTTTTTTTTTTTTTT PDIG        TELAPSE       12.85 TCPU       10.29
 TTTTTTTTTTTTTTTTTTTTTTTTTTTTTT MOQGAD      TELAPSE       12.85 TCPU       10.30
 TTTTTTTTTTTTTTTTTTTTTTTTTTTTTT SHELLXN     TELAPSE       15.46 TCPU       12.89
 TTTTTTTTTTTTTTTTTTTTTTTTTTTTTT MONMO3      TELAPSE       15.47 TCPU       12.90
 NUMERICALLY INTEGRATED DENSITY    184.0000125038
 TTTTTTTTTTTTTTTTTTTTTTTTTTTTTT NUMDFT      TELAPSE       15.61 TCPU       13.04
 CYC   2 ETOT(AU) -7.717811421373E+03 DETOT -4.79E-02 tst  1.99E-03 PX  5.13E-02
 TTTTTTTTTTTTTTTTTTTTTTTTTTTTTT DIIS        TELAPSE       15.61 TCPU       13.05
 DIIS TEST: 0.19466E+01 AT SCF   CYCLE   2 - DIIS ACTIVE - HISTORY:     2 CYCLES
 TTTTTTTTTTTTTTTTTTTTTTTTTTTTTT FDIK        TELAPSE       15.69 TCPU       13.11
 INSULATING STATE
 TOP OF VALENCE BANDS -    BAND     92; K    1; EIG -1.7061176E-01 AU
 BOTTOM OF VIRTUAL BANDS - BAND     93; K   23; EIG  2.1801144E-02 AU
 INDIRECT ENERGY BAND GAP:   5.2358 eV
 BOTTOM OF VIRTUAL BANDS - BAND     93; K    1; EIG  4.7776444E-02 AU
 TTTTTTTTTTTTTTTTTTTTTTTTTTTTTT PDIG        TELAPSE       15.76 TCPU       13.18
 TTTTTTTTTTTTTTTTTTTTTTTTTTTTTT MOQGAD      TELAPSE       15.76 TCPU       13.19
 TTTTTTTTTTTTTTTTTTTTTTTTTTTTTT SHELLXN     TELAPSE       18.37 TCPU       15.78
 TTTTTTTTTTTTTTTTTTTTTTTTTTTTTT MONMO3      TELAPSE       18.37 TCPU       15.78
 NUMERICALLY INTEGRATED DENSITY    184.0000118565
 TTTTTTTTTTTTTTTTTTTTTTTTTTTTTT NUMDFT      TELAPSE       18.51 TCPU       15.92
 CYC   3 ETOT(AU) -7.717909234088E+03 DETOT -9.78E-02 tst  5.58E-04 PX  3.03E-02
 TTTTTTTTTTTTTTTTTTTTTTTTTTTTTT DIIS        TELAPSE       18.52 TCPU       15.93
 DIIS TEST: 0.65774E-01 AT SCF   CYCLE   3 - DIIS ACTIVE - HISTORY:     3 CYCLES
 TTTTTTTTTTTTTTTTTTTTTTTTTTTTTT FDIK        TELAPSE       18.59 TCPU       16.00
 INSULATING STATE
 TOP OF VALENCE BANDS -    BAND     92; K    1; EIG -1.8141891E-01 AU
 BOTTOM OF VIRTUAL BANDS - BAND     93; K   23; EIG  1.5938345E-02 AU
 INDIRECT ENERGY BAND GAP:   5.3704 eV
 BOTTOM OF VIRTUAL BANDS - BAND     93; K    1; EIG  4.2260041E-02 AU
 TTTTTTTTTTTTTTTTTTTTTTTTTTTTTT PDIG        TELAPSE       18.66 TCPU       16.07
 TTTTTTTTTTTTTTTTTTTTTTTTTTTTTT MOQGAD      TELAPSE       18.66 TCPU       16.07
 TTTTTTTTTTTTTTTTTTTTTTTTTTTTTT SHELLXN     TELAPSE       21.27 TCPU       18.66
 TTTTTTTTTTTTTTTTTTTTTTTTTTTTTT MONMO3      TELAPSE       21.28 TCPU       18.67
 NUMERICALLY INTEGRATED DENSITY    184.0000115155
 TTTTTTTTTTTTTTTTTTTTTTTTTTTTTT NUMDFT      TELAPSE       21.42 TCPU       18.81
 CYC   4 ETOT(AU) -7.717912431075E+03 DETOT -3.20E-03 tst  3.47E-05 PX  1.04E-02
 TTTTTTTTTTTTTTTTTTTTTTTTTTTTTT DIIS        TELAPSE       21.42 TCPU       18.82
 DIIS TEST: 0.73758E-02 AT SCF   CYCLE   4 - DIIS ACTIVE - HISTORY:     4 CYCLES
 TTTTTTTTTTTTTTTTTTTTTTTTTTTTTT FDIK        TELAPSE       21.51 TCPU       18.89
 INSULATING STATE
 TOP OF VALENCE BANDS -    BAND     92; K    1; EIG -1.7708948E-01 AU
 BOTTOM OF VIRTUAL BANDS - BAND     93; K   23; EIG  1.9878356E-02 AU
 INDIRECT ENERGY BAND GAP:   5.3598 eV
 BOTTOM OF VIRTUAL BANDS - BAND     93; K    1; EIG  4.5194592E-02 AU
 TTTTTTTTTTTTTTTTTTTTTTTTTTTTTT PDIG        TELAPSE       21.58 TCPU       18.96
 TTTTTTTTTTTTTTTTTTTTTTTTTTTTTT MOQGAD      TELAPSE       21.58 TCPU       18.97
 TTTTTTTTTTTTTTTTTTTTTTTTTTTTTT SHELLXN     TELAPSE       24.18 TCPU       21.56
 TTTTTTTTTTTTTTTTTTTTTTTTTTTTTT MONMO3      TELAPSE       24.19 TCPU       21.56
 NUMERICALLY INTEGRATED DENSITY    184.0000115960
 TTTTTTTTTTTTTTTTTTTTTTTTTTTTTT NUMDFT      TELAPSE       24.33 TCPU       21.70
 CYC   5 ETOT(AU) -7.717912812367E+03 DETOT -3.81E-04 tst  2.58E-06 PX  2.15E-03
 TTTTTTTTTTTTTTTTTTTTTTTTTTTTTT DIIS        TELAPSE       24.34 TCPU       21.71
 DIIS TEST: 0.69069E-04 AT SCF   CYCLE   5 - DIIS ACTIVE - HISTORY:     5 CYCLES
 TTTTTTTTTTTTTTTTTTTTTTTTTTTTTT FDIK        TELAPSE       24.41 TCPU       21.78
 INSULATING STATE
 TOP OF VALENCE BANDS -    BAND     92; K    1; EIG -1.7699498E-01 AU
 BOTTOM OF VIRTUAL BANDS - BAND     93; K   23; EIG  2.0198066E-02 AU
 INDIRECT ENERGY BAND GAP:   5.3659 eV
 BOTTOM OF VIRTUAL BANDS - BAND     93; K    1; EIG  4.5745707E-02 AU
 TTTTTTTTTTTTTTTTTTTTTTTTTTTTTT PDIG        TELAPSE       24.48 TCPU       21.85
 TTTTTTTTTTTTTTTTTTTTTTTTTTTTTT MOQGAD      TELAPSE       24.48 TCPU       21.85
 TTTTTTTTTTTTTTTTTTTTTTTTTTTTTT SHELLXN     TELAPSE       27.09 TCPU       24.44
 TTTTTTTTTTTTTTTTTTTTTTTTTTTTTT MONMO3      TELAPSE       27.10 TCPU       24.45
 NUMERICALLY INTEGRATED DENSITY    184.0000115905
 TTTTTTTTTTTTTTTTTTTTTTTTTTTTTT NUMDFT      TELAPSE       27.24 TCPU       24.59
 CYC   6 ETOT(AU) -7.717912821375E+03 DETOT -9.01E-06 tst  1.35E-07 PX  3.56E-04
 TTTTTTTTTTTTTTTTTTTTTTTTTTTTTT DIIS        TELAPSE       27.24 TCPU       24.60
 DIIS TEST: 0.20409E-06 AT SCF   CYCLE   6 - DIIS ACTIVE - HISTORY:     6 CYCLES
 TTTTTTTTTTTTTTTTTTTTTTTTTTTTTT FDIK        TELAPSE       27.32 TCPU       24.67
 INSULATING STATE
 TOP OF VALENCE BANDS -    BAND     92; K    1; EIG -1.7698975E-01 AU
 BOTTOM OF VIRTUAL BANDS - BAND     93; K   23; EIG  2.0222019E-02 AU
 INDIRECT ENERGY BAND GAP:   5.3664 eV
 BOTTOM OF VIRTUAL BANDS - BAND     93; K    1; EIG  4.5762794E-02 AU
 TTTTTTTTTTTTTTTTTTTTTTTTTTTTTT PDIG        TELAPSE       27.38 TCPU       24.73
 TTTTTTTTTTTTTTTTTTTTTTTTTTTTTT MOQGAD      TELAPSE       27.39 TCPU       24.74
 TTTTTTTTTTTTTTTTTTTTTTTTTTTTTT SHELLXN     TELAPSE       29.99 TCPU       27.33
 TTTTTTTTTTTTTTTTTTTTTTTTTTTTTT MONMO3      TELAPSE       30.00 TCPU       27.33
 NUMERICALLY INTEGRATED DENSITY    184.0000115903
 TTTTTTTTTTTTTTTTTTTTTTTTTTTTTT NUMDFT      TELAPSE       30.14 TCPU       27.47
 CYC   7 ETOT(AU) -7.717912821446E+03 DETOT -7.10E-08 tst  2.96E-10 PX  3.50E-05
 TTTTTTTTTTTTTTTTTTTTTTTTTTTTTT DIIS        TELAPSE       30.15 TCPU       27.48
 DIIS TEST: 0.70716E-08 AT SCF   CYCLE   7 - DIIS ACTIVE - HISTORY:     7 CYCLES
 TTTTTTTTTTTTTTTTTTTTTTTTTTTTTT FDIK        TELAPSE       30.22 TCPU       27.55
 INSULATING STATE
 TOP OF VALENCE BANDS -    BAND     92; K    1; EIG -1.7698937E-01 AU
 BOTTOM OF VIRTUAL BANDS - BAND     93; K   23; EIG  2.0223189E-02 AU
 INDIRECT ENERGY BAND GAP:   5.3664 eV
 BOTTOM OF VIRTUAL BANDS - BAND     93; K    1; EIG  4.5765044E-02 AU
 TTTTTTTTTTTTTTTTTTTTTTTTTTTTTT PDIG        TELAPSE       30.29 TCPU       27.62
 TTTTTTTTTTTTTTTTTTTTTTTTTTTTTT MOQGAD      TELAPSE       30.29 TCPU       27.62
 TTTTTTTTTTTTTTTTTTTTTTTTTTTTTT SHELLXN     TELAPSE       32.90 TCPU       30.21
 TTTTTTTTTTTTTTTTTTTTTTTTTTTTTT MONMO3      TELAPSE       32.90 TCPU       30.22
 NUMERICALLY INTEGRATED DENSITY    184.0000115903
 TTTTTTTTTTTTTTTTTTTTTTTTTTTTTT NUMDFT      TELAPSE       33.05 TCPU       30.36
 CYC   8 ETOT(AU) -7.717912821452E+03 DETOT -6.18E-09 tst  8.92E-12 PX  2.98E-06
 TTTTTTTTTTTTTTTTTTTTTTTTTTTTTT DIIS        TELAPSE       33.05 TCPU       30.37
 DIIS TEST: 0.47507E-11 AT SCF   CYCLE   8 - DIIS ACTIVE - HISTORY:     8 CYCLES
 TTTTTTTTTTTTTTTTTTTTTTTTTTTTTT FDIK        TELAPSE       33.12 TCPU       30.43
 INSULATING STATE
 TOP OF VALENCE BANDS -    BAND     92; K    1; EIG -1.7698948E-01 AU
 BOTTOM OF VIRTUAL BANDS - BAND     93; K   23; EIG  2.0223154E-02 AU
 INDIRECT ENERGY BAND GAP:   5.3664 eV
 BOTTOM OF VIRTUAL BANDS - BAND     93; K    1; EIG  4.5765036E-02 AU
 TTTTTTTTTTTTTTTTTTTTTTTTTTTTTT PDIG        TELAPSE       33.19 TCPU       30.50
 TTTTTTTTTTTTTTTTTTTTTTTTTTTTTT MOQGAD      TELAPSE       33.19 TCPU       30.51
 TTTTTTTTTTTTTTTTTTTTTTTTTTTTTT SHELLXN     TELAPSE       35.80 TCPU       33.09
 TTTTTTTTTTTTTTTTTTTTTTTTTTTTTT MONMO3      TELAPSE       35.81 TCPU       33.10
 NUMERICALLY INTEGRATED DENSITY    184.0000115903
 TTTTTTTTTTTTTTTTTTTTTTTTTTTTTT NUMDFT      TELAPSE       35.95 TCPU       33.24
 CYC   9 ETOT(AU) -7.717912821451E+03 DETOT  5.74E-10 tst  5.52E-14 PX  1.57E-07
 TTTTTTTTTTTTTTTTTTTTTTTTTTTTTT DIIS        TELAPSE       35.95 TCPU       33.25
 DIIS TEST: 0.35599E-14 AT SCF   CYCLE   9 - DIIS ACTIVE - HISTORY:     9 CYCLES
 TTTTTTTTTTTTTTTTTTTTTTTTTTTTTT FDIK        TELAPSE       36.16 TCPU       33.45
 INSULATING STATE
 TOP OF VALENCE BANDS -    BAND     92; K    1; EIG -1.7698948E-01 AU
 BOTTOM OF VIRTUAL BANDS - BAND     93; K   23; EIG  2.0223147E-02 AU
 INDIRECT ENERGY BAND GAP:   5.3664 eV
 BOTTOM OF VIRTUAL BANDS - BAND     93; K    1; EIG  4.5765029E-02 AU
 TTTTTTTTTTTTTTTTTTTTTTTTTTTTTT PDIG        TELAPSE       36.23 TCPU       33.52
 TTTTTTTTTTTTTTTTTTTTTTTTTTTTTT MOQGAD      TELAPSE       36.24 TCPU       33.53
 TTTTTTTTTTTTTTTTTTTTTTTTTTTTTT SHELLXN     TELAPSE       38.84 TCPU       36.12
 TTTTTTTTTTTTTTTTTTTTTTTTTTTTTT MONMO3      TELAPSE       38.85 TCPU       36.12
 NUMERICALLY INTEGRATED DENSITY    184.0000115903
 TTTTTTTTTTTTTTTTTTTTTTTTTTTTTT NUMDFT      TELAPSE       38.99 TCPU       36.26
 CYC  10 ETOT(AU) -7.717912821451E+03 DETOT  1.17E-10 tst  2.92E-17 PX  1.02E-08
 TTTTTTTTTTTTTTTTTTTTTTTTTTTTTT DIIS        TELAPSE       39.00 TCPU       36.27
 DIIS TEST: 0.94252E-16 AT SCF   CYCLE  10 - DIIS ACTIVE - HISTORY:    10 CYCLES
 TTTTTTTTTTTTTTTTTTTTTTTTTTTTTT FDIK        TELAPSE       39.07 TCPU       36.34
 INSULATING STATE
 TOP OF VALENCE BANDS -    BAND     92; K    1; EIG -1.7698948E-01 AU
 BOTTOM OF VIRTUAL BANDS - BAND     93; K   23; EIG  2.0223148E-02 AU
 INDIRECT ENERGY BAND GAP:   5.3664 eV
 BOTTOM OF VIRTUAL BANDS - BAND     93; K    1; EIG  4.5765029E-02 AU
 TTTTTTTTTTTTTTTTTTTTTTTTTTTTTT PDIG        TELAPSE       39.14 TCPU       36.41
 TTTTTTTTTTTTTTTTTTTTTTTTTTTTTT MOQGAD      TELAPSE       39.14 TCPU       36.41
 TTTTTTTTTTTTTTTTTTTTTTTTTTTTTT SHELLXN     TELAPSE       41.75 TCPU       39.00
 TTTTTTTTTTTTTTTTTTTTTTTTTTTTTT MONMO3      TELAPSE       41.75 TCPU       39.01
 NUMERICALLY INTEGRATED DENSITY    184.0000115903
 TTTTTTTTTTTTTTTTTTTTTTTTTTTTTT NUMDFT      TELAPSE       41.89 TCPU       39.15
 CYC  11 ETOT(AU) -7.717912821451E+03 DETOT -1.00E-11 tst  2.72E-19 PX  1.43E-09
 TTTTTTTTTTTTTTTTTTTTTTTTTTTTTT DIIS        TELAPSE       41.91 TCPU       39.16
 DIIS TEST: 0.40764E-18 AT SCF   CYCLE  11 - DIIS ACTIVE - HISTORY:    10 CYCLES
 TTTTTTTTTTTTTTTTTTTTTTTTTTTTTT FDIK        TELAPSE       41.98 TCPU       39.23
 INSULATING STATE
 TOP OF VALENCE BANDS -    BAND     92; K    1; EIG -1.7698948E-01 AU
 BOTTOM OF VIRTUAL BANDS - BAND     93; K   23; EIG  2.0223148E-02 AU
 INDIRECT ENERGY BAND GAP:   5.3664 eV
 BOTTOM OF VIRTUAL BANDS - BAND     93; K    1; EIG  4.5765029E-02 AU
 TTTTTTTTTTTTTTTTTTTTTTTTTTTTTT PDIG        TELAPSE       42.05 TCPU       39.30
 TTTTTTTTTTTTTTTTTTTTTTTTTTTTTT MOQGAD      TELAPSE       42.05 TCPU       39.30
 TTTTTTTTTTTTTTTTTTTTTTTTTTTTTT SHELLXN     TELAPSE       44.65 TCPU       41.89
 TTTTTTTTTTTTTTTTTTTTTTTTTTTTTT MONMO3      TELAPSE       44.66 TCPU       41.90
 NUMERICALLY INTEGRATED DENSITY    184.0000115903
 TTTTTTTTTTTTTTTTTTTTTTTTTTTTTT NUMDFT      TELAPSE       44.80 TCPU       42.04
 CYC  12 ETOT(AU) -7.717912821451E+03 DETOT -1.09E-11 tst  5.93E-21 PX  1.93E-10
 TTTTTTTTTTTTTTTTTTTTTTTTTTTTTT DIIS        TELAPSE       44.82 TCPU       42.05
 DIIS TEST: 0.16971E-20 AT SCF   CYCLE  12 - DIIS ACTIVE - HISTORY:     9 CYCLES
 TTTTTTTTTTTTTTTTTTTTTTTTTTTTTT FDIK        TELAPSE       44.89 TCPU       42.12
 INSULATING STATE
 TOP OF VALENCE BANDS -    BAND     92; K    1; EIG -1.7698948E-01 AU
 BOTTOM OF VIRTUAL BANDS - BAND     93; K   23; EIG  2.0223148E-02 AU
 INDIRECT ENERGY BAND GAP:   5.3664 eV
 BOTTOM OF VIRTUAL BANDS - BAND     93; K    1; EIG  4.5765029E-02 AU
 TTTTTTTTTTTTTTTTTTTTTTTTTTTTTT PDIG        TELAPSE       44.96 TCPU       42.19
 TTTTTTTTTTTTTTTTTTTTTTTTTTTTTT MOQGAD      TELAPSE       44.96 TCPU       42.20
 TTTTTTTTTTTTTTTTTTTTTTTTTTTTTT SHELLXN     TELAPSE       47.57 TCPU       44.79
 TTTTTTTTTTTTTTTTTTTTTTTTTTTTTT MONMO3      TELAPSE       47.57 TCPU       44.79
 NUMERICALLY INTEGRATED DENSITY    184.0000115903
 TTTTTTTTTTTTTTTTTTTTTTTTTTTTTT NUMDFT      TELAPSE       47.72 TCPU       44.93
 CYC  13 ETOT(AU) -7.717912821451E+03 DETOT  2.64E-11 tst  5.72E-23 PX  3.61E-11
 TTTTTTTTTTTTTTTTTTTTTTTTTTTTTT DIIS        TELAPSE       47.72 TCPU       44.94
 DIIS TEST: 0.17328E-21 AT SCF   CYCLE  13 - DIIS ACTIVE - HISTORY:     8 CYCLES
 TTTTTTTTTTTTTTTTTTTTTTTTTTTTTT FDIK        TELAPSE       47.80 TCPU       45.01
 INSULATING STATE
 TOP OF VALENCE BANDS -    BAND     92; K    1; EIG -1.7698948E-01 AU
 BOTTOM OF VIRTUAL BANDS - BAND     93; K   23; EIG  2.0223148E-02 AU
 INDIRECT ENERGY BAND GAP:   5.3664 eV
 BOTTOM OF VIRTUAL BANDS - BAND     93; K    1; EIG  4.5765029E-02 AU
 TTTTTTTTTTTTTTTTTTTTTTTTTTTTTT PDIG        TELAPSE       47.86 TCPU       45.08
 TTTTTTTTTTTTTTTTTTTTTTTTTTTTTT MOQGAD      TELAPSE       47.87 TCPU       45.08
 TTTTTTTTTTTTTTTTTTTTTTTTTTTTTT SHELLXN     TELAPSE       50.47 TCPU       47.67
 TTTTTTTTTTTTTTTTTTTTTTTTTTTTTT MONMO3      TELAPSE       50.48 TCPU       47.67
 NUMERICALLY INTEGRATED DENSITY    184.0000115903
 TTTTTTTTTTTTTTTTTTTTTTTTTTTTTT NUMDFT      TELAPSE       50.62 TCPU       47.81
 CYC  14 ETOT(AU) -7.717912821451E+03 DETOT -3.00E-11 tst  2.86E-23 PX  3.13E-11
 TTTTTTTTTTTTTTTTTTTTTTTTTTTTTT DIIS        TELAPSE       50.62 TCPU       47.82
 DIIS TEST: 0.94315E-22 AT SCF   CYCLE  14 - DIIS ACTIVE - HISTORY:     8 CYCLES
 TTTTTTTTTTTTTTTTTTTTTTTTTTTTTT FDIK        TELAPSE       50.70 TCPU       47.89
 INSULATING STATE
 TOP OF VALENCE BANDS -    BAND     92; K    1; EIG -1.7698948E-01 AU
 BOTTOM OF VIRTUAL BANDS - BAND     93; K   23; EIG  2.0223148E-02 AU
 INDIRECT ENERGY BAND GAP:   5.3664 eV
 BOTTOM OF VIRTUAL BANDS - BAND     93; K    1; EIG  4.5765029E-02 AU
 TTTTTTTTTTTTTTTTTTTTTTTTTTTTTT PDIG        TELAPSE       50.77 TCPU       47.96
 TTTTTTTTTTTTTTTTTTTTTTTTTTTTTT MOQGAD      TELAPSE       50.77 TCPU       47.96
 TTTTTTTTTTTTTTTTTTTTTTTTTTTTTT SHELLXN     TELAPSE       53.37 TCPU       50.55
 TTTTTTTTTTTTTTTTTTTTTTTTTTTTTT MONMO3      TELAPSE       53.38 TCPU       50.56
 NUMERICALLY INTEGRATED DENSITY    184.0000115903
 TTTTTTTTTTTTTTTTTTTTTTTTTTTTTT NUMDFT      TELAPSE       53.52 TCPU       50.70
 CYC  15 ETOT(AU) -7.717912821451E+03 DETOT  1.91E-11 tst  2.56E-24 PX  3.15E-11
 TTTTTTTTTTTTTTTTTTTTTTTTTTTTTT DIIS        TELAPSE       53.53 TCPU       50.70
 DIIS TEST: 0.55917E-22 AT SCF   CYCLE  15 - DIIS ACTIVE - HISTORY:     8 CYCLES
 TTTTTTTTTTTTTTTTTTTTTTTTTTTTTT FDIK        TELAPSE       53.60 TCPU       50.77
 INSULATING STATE
 TOP OF VALENCE BANDS -    BAND     92; K    1; EIG -1.7698948E-01 AU
 BOTTOM OF VIRTUAL BANDS - BAND     93; K   23; EIG  2.0223148E-02 AU
 INDIRECT ENERGY BAND GAP:   5.3664 eV
 BOTTOM OF VIRTUAL BANDS - BAND     93; K    1; EIG  4.5765029E-02 AU
 TTTTTTTTTTTTTTTTTTTTTTTTTTTTTT PDIG        TELAPSE       53.67 TCPU       50.84
 TTTTTTTTTTTTTTTTTTTTTTTTTTTTTT MOQGAD      TELAPSE       53.67 TCPU       50.84
 TTTTTTTTTTTTTTTTTTTTTTTTTTTTTT SHELLXN     TELAPSE       56.28 TCPU       53.43
 TTTTTTTTTTTTTTTTTTTTTTTTTTTTTT MONMO3      TELAPSE       56.29 TCPU       53.44
 NUMERICALLY INTEGRATED DENSITY    184.0000115903
 TTTTTTTTTTTTTTTTTTTTTTTTTTTTTT NUMDFT      TELAPSE       56.43 TCPU       53.58
 CYC  16 ETOT(AU) -7.717912821451E+03 DETOT -1.00E-11 tst  2.64E-25 PX  9.11E-12
 TTTTTTTTTTTTTTTTTTTTTTTTTTTTTT DIIS        TELAPSE       56.43 TCPU       53.59
 DIIS TEST: 0.74267E-22 AT SCF   CYCLE  16 - DIIS ACTIVE - HISTORY:     9 CYCLES
 TTTTTTTTTTTTTTTTTTTTTTTTTTTTTT FDIK        TELAPSE       56.50 TCPU       53.65
 INSULATING STATE
 TOP OF VALENCE BANDS -    BAND     92; K    1; EIG -1.7698948E-01 AU
 BOTTOM OF VIRTUAL BANDS - BAND     93; K   23; EIG  2.0223148E-02 AU
 INDIRECT ENERGY BAND GAP:   5.3664 eV
 BOTTOM OF VIRTUAL BANDS - BAND     93; K    1; EIG  4.5765029E-02 AU
 TTTTTTTTTTTTTTTTTTTTTTTTTTTTTT PDIG        TELAPSE       56.57 TCPU       53.72
 TTTTTTTTTTTTTTTTTTTTTTTTTTTTTT MOQGAD      TELAPSE       56.58 TCPU       53.73
 TTTTTTTTTTTTTTTTTTTTTTTTTTTTTT SHELLXN     TELAPSE       59.18 TCPU       56.31
 TTTTTTTTTTTTTTTTTTTTTTTTTTTTTT MONMO3      TELAPSE       59.19 TCPU       56.32
 NUMERICALLY INTEGRATED DENSITY    184.0000115903
 TTTTTTTTTTTTTTTTTTTTTTTTTTTTTT NUMDFT      TELAPSE       59.33 TCPU       56.46
 CYC  17 ETOT(AU) -7.717912821451E+03 DETOT  2.73E-12 tst  1.34E-25 PX  7.71E-12
 TTTTTTTTTTTTTTTTTTTTTTTTTTTTTT DIIS        TELAPSE       59.34 TCPU       56.47
 DIIS TEST: 0.57734E-22 AT SCF   CYCLE  17 - DIIS ACTIVE - HISTORY:    10 CYCLES
 TTTTTTTTTTTTTTTTTTTTTTTTTTTTTT FDIK        TELAPSE       59.41 TCPU       56.54
 INSULATING STATE
 TOP OF VALENCE BANDS -    BAND     92; K    1; EIG -1.7698948E-01 AU
 BOTTOM OF VIRTUAL BANDS - BAND     93; K   23; EIG  2.0223148E-02 AU
 INDIRECT ENERGY BAND GAP:   5.3664 eV
 BOTTOM OF VIRTUAL BANDS - BAND     93; K    1; EIG  4.5765029E-02 AU
 TTTTTTTTTTTTTTTTTTTTTTTTTTTTTT PDIG        TELAPSE       59.48 TCPU       56.61
 TTTTTTTTTTTTTTTTTTTTTTTTTTTTTT MOQGAD      TELAPSE       59.48 TCPU       56.61
 TTTTTTTTTTTTTTTTTTTTTTTTTTTTTT SHELLXN     TELAPSE       62.09 TCPU       59.20
 ::: PSEUDO TOTAL   ENERGY                        -7.4517995689913E+03
 ::: VIRIAL COEFFICIENT                            1.0165368309354E+00
 TTTTTTTTTTTTTTTTTTTTTTTTTTTTTT MONMO3      TELAPSE       62.10 TCPU       59.21
 NUMERICALLY INTEGRATED DENSITY    184.0000115903
 EXCHANGE ENERGY: -0.258052628745E+03  CORRELATION ENERGY: -0.806062371424E+01
 TTTTTTTTTTTTTTTTTTTTTTTTTTTTTT NUMDFT      TELAPSE       62.24 TCPU       59.35
 CYC  18 ETOT(AU) -7.717912821451E+03 DETOT  0.00E+00 tst  2.32E-25 PX  7.71E-12

 == SCF ENDED - CONVERGENCE ON ENERGY      E(AU) -7.7179128214510E+03 CYCLES  18


 ENERGY EXPRESSION=HARTREE+FOCK EXCH*0.25000+(PBE        EXCH)*0.75000+PBE        CORR


 TOTAL ENERGY(DFT)(AU)( 18) -7.7179128214510E+03 DE 0.0E+00 tester 2.3E-25
 TTTTTTTTTTTTTTTTTTTTTTTTTTTTTT EDFT        TELAPSE       62.24 TCPU       59.35

 *******************************************************************************
 *                             FORCE CALCULATION                               *
 *******************************************************************************

 TTTTTTTTTTTTTTTTTTTTTTTTTTTTTT NUMDFG      TELAPSE       62.55 TCPU       59.66
 INFORMATION **** EXCPOG **** EXCH. BIPO BUFFER LENGTH (WORDS) =     3926412
 INFORMATION **** GENPOG **** BIPO BUFFER LENGTH (WORDS) =     1683200
 TTTTTTTTTTTTTTTTTTTTTTTTTTTTTT SHELXG      TELAPSE       79.76 TCPU       76.77

 CARTESIAN FORCES IN HARTREE/BOHR (ANALYTICAL)
   ATOM                     X                   Y                   Z
   1  30             6.883382752676E-15  6.883382752676E-15 -1.139828971948E-14
   2  30             5.551115123126E-15  4.588921835117E-15  1.702341971092E-14
   3  30             3.330669073875E-15 -1.776356839400E-15 -1.036208156317E-14
   4  30             2.072416312634E-15  6.069219201284E-15  1.539509260814E-14
   5   8             3.714009681447E-03 -3.714009681449E-03 -3.714009681447E-03
   6   8            -3.714009681456E-03  3.714009681455E-03 -3.714009681458E-03
   7   8             3.714009681435E-03  3.714009681436E-03  3.714009681442E-03
   8   8            -3.714009681447E-03 -3.714009681453E-03  3.714009681445E-03
   9   8            -3.714009681446E-03  3.714009681451E-03  3.714009681448E-03
  10   8             3.714009681447E-03 -3.714009681453E-03  3.714009681452E-03
  11   8            -3.714009681448E-03 -3.714009681446E-03 -3.714009681440E-03
  12   8             3.714009681446E-03  3.714009681445E-03 -3.714009681453E-03

 RESULTANT FORCE    -3.626439426530E-15  2.035264318190E-15 -4.072263359856E-16

 ATOMIC PART

 SYMMETRY ALLOWED FORCES (ANALYTICAL) (DIRECTION, FORCE)

    1  1.8194857E-02

 CELL PART

 GRADIENT WITH RESPECT TO THE CELL PARAMETER IN HARTREE/BOHR
ORDER: -D/DA1X, -D/DA1Y, -D/DA1Z
       -D/DA2X, -D/DA2Y, -D/DA2Z
       -D/DA3X, -D/DA3Y, -D/DA3Z
 -0.589284208561E-02 -0.134314510763E-14 -0.183879059232E-15
 -0.270198677441E-14 -0.589284208563E-02 -0.382708902870E-15
  0.976227736272E-15 -0.281208778742E-14 -0.589284208565E-02

STRESS TENSOR, IN HARTREE/BOHR^3:
ORDER: 11 12 13
       21 22 23
       31 32 33
  0.689210335117E-04  0.316016818916E-16 -0.114176866695E-16
  0.157090496622E-16  0.689210335118E-04  0.328893925578E-16
  0.215059806784E-17  0.447605633015E-17  0.689210335121E-04

PRESSURE FROM THE STRESS TENSOR,
IN HARTREE/BOHR^3: -0.68921E-04
PRESSURE IN GIGAPASCAL: -0.2028E+01
CONVERSION FACTOR: 1 HARTREE/BOHR^3= 29421 GIGAPASCAL
WHEN USING VALUES FOR BOHR RADIUS AND HARTREE
FROM IUPAC WEBSITE, APRIL 2009
ENTHALPY: -7.7179673107617E+03

 SYMMETRY ALLOWED FORCES (ANALYTICAL) (DIRECTION, FORCE)

    1 -9.2681532E-03
 TTTTTTTTTTTTTTTTTTTTTTTTTTTTTT TOTGRA      TELAPSE       79.94 TCPU       76.96
 INFORMATION **** optc001 **** GEOMETRY OUTPUT FILE
 CLASSICAL MODEL (SCHLEGEL) USED AS INITIAL HESSIAN MATRIX
 REFERENCE GEOMETRY DEFINED

 MAX GRADIENT      0.018195  THRESHOLD              0.000045 CONVERGED NO
 RMS GRADIENT      0.014439  THRESHOLD              0.000030 CONVERGED NO

 GRADIENT NORM     0.020419  GRADIENT THRESHOLD     0.500000

 EIGENVALUES OF THE ESTIMATED HESSIAN
  0.1559      0.7220    

 INITIAL TRUST RADIUS    0.5000000000E+00

 PREDICTED ENERGY CHANGE    -0.604E-03

 INITIAL DISPLACEMENTS
  0.031359 -0.068844
 TTTTTTTTTTTTTTTTTTTTTTTTTTTTTT OPTI        TELAPSE       80.16 TCPU       77.15

 OPTOPTOPTOPTOPTOPTOPTOPTOPTOPTOPTOPTOPTOPTOPTOPTOPTOPTOPTOPTOPTOPTOPTOPTOPTOPT

 - INFORMATION ON SCF MOVED TO SCFOUT.LOG
 GEOMETRY OPTIMIZATION INFORMATION STORED IN OPTINFO.DAT

 OPTOPTOPTOPTOPTOPTOPTOPTOPTOPTOPTOPTOPTOPTOPTOPTOPTOPTOPTOPTOPTOPTOPTOPTOPTOPT
 *******************************************************************************
 COORDINATE AND CELL OPTIMIZATION - POINT    2
 *******************************************************************************
 LATTICE PARAMETERS (ANGSTROMS AND DEGREES) - BOHR = 0.5291772083 ANGSTROM
 PRIMITIVE CELL - CENTRING CODE 1/0 VOLUME=   115.789046 - DENSITY  5.502 g/cm^3
         A              B              C           ALPHA      BETA       GAMMA 
     4.87404078     4.87404078     4.87404078    90.000000  90.000000  90.000000
 *******************************************************************************
 ATOMS IN THE ASYMMETRIC UNIT    2 - ATOMS IN THE UNIT CELL:   12
     ATOM                 X/A                 Y/B                 Z/C    
 *******************************************************************************
      1 T  30 ZN   -5.000000000000E-01 -5.000000000000E-01  0.000000000000E+00
      2 F  30 ZN    0.000000000000E+00 -5.000000000000E-01 -5.000000000000E-01
      3 F  30 ZN    0.000000000000E+00  0.000000000000E+00  0.000000000000E+00
      4 F  30 ZN   -5.000000000000E-01  0.000000000000E+00 -5.000000000000E-01
      5 T   8 O     8.760226819967E-02 -8.760226819967E-02  4.123977318003E-01
      6 F   8 O     4.123977318003E-01  8.760226819967E-02 -8.760226819967E-02
      7 F   8 O    -4.123977318003E-01 -4.123977318003E-01 -4.123977318003E-01
      8 F   8 O    -8.760226819967E-02  4.123977318003E-01  8.760226819967E-02
      9 F   8 O    -8.760226819967E-02  8.760226819967E-02 -4.123977318003E-01
     10 F   8 O    -4.123977318003E-01 -8.760226819967E-02  8.760226819967E-02
     11 F   8 O     4.123977318003E-01  4.123977318003E-01  4.123977318003E-01
     12 F   8 O     8.760226819967E-02 -4.123977318003E-01 -8.760226819967E-02

 T = ATOM BELONGING TO THE ASYMMETRIC UNIT

 TOTAL ENERGY(DFT)(AU)( 13) -7.7179134929420E+03     DE (AU)   -6.715E-04

 UPDATED TRUST RADIUS     0.500E+00

 SYMMETRY ALLOWED FORCES  (COORDINATE, FORCE)

    1  4.6298100E-03    2 -1.9809470E-03

 GRADIENT NORM     0.005036  GRADIENT THRESHOLD     0.500000

 EIGENVALUES OF THE ESTIMATED HESSIAN
  0.1313      0.6574    

 PREDICTED ENERGY CHANGE    -0.431E-04

 MAX GRADIENT      0.004630  THRESHOLD              0.000045 CONVERGED NO
 RMS GRADIENT      0.003561  THRESHOLD              0.000030 CONVERGED NO
 MAX DISPLAC.      0.019745  THRESHOLD              0.000180 CONVERGED NO
 RMS DISPLAC.      0.015698  THRESHOLD              0.000120 CONVERGED NO
 TTTTTTTTTTTTTTTTTTTTTTTTTTTTTT OPTI        TELAPSE      139.93 TCPU      136.02
 *******************************************************************************
 COORDINATE AND CELL OPTIMIZATION - POINT    3
 *******************************************************************************
 LATTICE PARAMETERS (ANGSTROMS AND DEGREES) - BOHR = 0.5291772083 ANGSTROM
 PRIMITIVE CELL - CENTRING CODE 1/0 VOLUME=   115.400608 - DENSITY  5.521 g/cm^3
         A              B              C           ALPHA      BETA       GAMMA 
     4.86858435     4.86858435     4.86858435    90.000000  90.000000  90.000000
 *******************************************************************************
 ATOMS IN THE ASYMMETRIC UNIT    2 - ATOMS IN THE UNIT CELL:   12
     ATOM                 X/A                 Y/B                 Z/C    
 *******************************************************************************
      1 T  30 ZN   -5.000000000000E-01 -5.000000000000E-01  0.000000000000E+00
      2 F  30 ZN    0.000000000000E+00 -5.000000000000E-01 -5.000000000000E-01
      3 F  30 ZN    0.000000000000E+00  0.000000000000E+00  0.000000000000E+00
      4 F  30 ZN   -5.000000000000E-01  0.000000000000E+00 -5.000000000000E-01
      5 T   8 O     8.782632099206E-02 -8.782632099206E-02  4.121736790079E-01
      6 F   8 O     4.121736790079E-01  8.782632099206E-02 -8.782632099206E-02
      7 F   8 O    -4.121736790079E-01 -4.121736790079E-01 -4.121736790079E-01
      8 F   8 O    -8.782632099206E-02  4.121736790079E-01  8.782632099206E-02
      9 F   8 O    -8.782632099206E-02  8.782632099206E-02 -4.121736790079E-01
     10 F   8 O    -4.121736790079E-01 -8.782632099206E-02  8.782632099206E-02
     11 F   8 O     4.121736790079E-01  4.121736790079E-01  4.121736790079E-01
     12 F   8 O     8.782632099206E-02 -4.121736790079E-01 -8.782632099206E-02

 T = ATOM BELONGING TO THE ASYMMETRIC UNIT

 TOTAL ENERGY(DFT)(AU)( 15) -7.7179135124008E+03     DE (AU)   -1.946E-05

 UPDATED TRUST RADIUS     0.500E+00

 SYMMETRY ALLOWED FORCES  (COORDINATE, FORCE)

    1  1.4195137E-04    2  9.7588171E-05

 GRADIENT NORM     0.000172  GRADIENT THRESHOLD     0.500000

 EIGENVALUES OF THE ESTIMATED HESSIAN
  0.1354      0.6413    

 PREDICTED ENERGY CHANGE    -0.371E-07

 MAX GRADIENT      0.000142  THRESHOLD              0.000045 CONVERGED NO
 RMS GRADIENT      0.000122  THRESHOLD              0.000030 CONVERGED NO
 MAX DISPLAC.      0.000548  THRESHOLD              0.000180 CONVERGED NO
 RMS DISPLAC.      0.000401  THRESHOLD              0.000120 CONVERGED NO
 TTTTTTTTTTTTTTTTTTTTTTTTTTTTTT OPTI        TELAPSE      204.77 TCPU      200.45
 *******************************************************************************
 COORDINATE AND CELL OPTIMIZATION - POINT    4
 *******************************************************************************
 LATTICE PARAMETERS (ANGSTROMS AND DEGREES) - BOHR = 0.5291772083 ANGSTROM
 PRIMITIVE CELL - CENTRING CODE 1/0 VOLUME=   115.411373 - DENSITY  5.520 g/cm^3
         A              B              C           ALPHA      BETA       GAMMA 
     4.86873574     4.86873574     4.86873574    90.000000  90.000000  90.000000
 *******************************************************************************
 ATOMS IN THE ASYMMETRIC UNIT    2 - ATOMS IN THE UNIT CELL:   12
     ATOM                 X/A                 Y/B                 Z/C    
 *******************************************************************************
      1 T  30 ZN   -5.000000000000E-01 -5.000000000000E-01  0.000000000000E+00
      2 F  30 ZN    0.000000000000E+00 -5.000000000000E-01 -5.000000000000E-01
      3 F  30 ZN    0.000000000000E+00  0.000000000000E+00  0.000000000000E+00
      4 F  30 ZN   -5.000000000000E-01  0.000000000000E+00 -5.000000000000E-01
      5 T   8 O     8.782953696163E-02 -8.782953696163E-02  4.121704630384E-01
      6 F   8 O     4.121704630384E-01  8.782953696163E-02 -8.782953696163E-02
      7 F   8 O    -4.121704630384E-01 -4.121704630384E-01 -4.121704630384E-01
      8 F   8 O    -8.782953696163E-02  4.121704630384E-01  8.782953696163E-02
      9 F   8 O    -8.782953696163E-02  8.782953696163E-02 -4.121704630384E-01
     10 F   8 O    -4.121704630384E-01 -8.782953696163E-02  8.782953696163E-02
     11 F   8 O     4.121704630384E-01  4.121704630384E-01  4.121704630384E-01
     12 F   8 O     8.782953696163E-02 -4.121704630384E-01 -8.782953696163E-02

 T = ATOM BELONGING TO THE ASYMMETRIC UNIT

 TOTAL ENERGY(DFT)(AU)( 10) -7.7179135127031E+03     DE (AU)   -3.023E-07

 UPDATED TRUST RADIUS     0.500E+00

 SYMMETRY ALLOWED FORCES  (COORDINATE, FORCE)

    1  2.1318665E-05    2  1.0423909E-05

 GRADIENT NORM     0.000024  GRADIENT THRESHOLD     0.500000

 EIGENVALUES OF THE ESTIMATED HESSIAN
  0.1308      0.5847    

 PREDICTED ENERGY CHANGE    -0.631E-09

 MAX GRADIENT      0.000021  THRESHOLD              0.000045 CONVERGED YES
 RMS GRADIENT      0.000017  THRESHOLD              0.000030 CONVERGED YES
 MAX DISPLAC.      0.000060  THRESHOLD              0.000180 CONVERGED YES
 RMS DISPLAC.      0.000047  THRESHOLD              0.000120 CONVERGED YES

 CONVERGENCE TESTS SATISFIED AFTER   4 ENERGY AND GRADIENT CALCULATIONS
 +++++++++++++++++++++++++++++++++++++++++++++++++++++++++++++++++++++++++++++++
 FINALRUN OPTION: RE-STARTING OPTIMIZATION
 +++++++++++++++++++++++++++++++++++++++++++++++++++++++++++++++++++++++++++++++
 TTTTTTTTTTTTTTTTTTTTTTTTTTTTTT OPTI        TELAPSE      255.11 TCPU      250.41
 *******************************************************************************
 COORDINATE AND CELL OPTIMIZATION - POINT    5
 *******************************************************************************
 LATTICE PARAMETERS (ANGSTROMS AND DEGREES) - BOHR = 0.5291772083 ANGSTROM
 PRIMITIVE CELL - CENTRING CODE 1/0 VOLUME=   115.412541 - DENSITY  5.520 g/cm^3
         A              B              C           ALPHA      BETA       GAMMA 
     4.86875217     4.86875217     4.86875217    90.000000  90.000000  90.000000
 *******************************************************************************
 ATOMS IN THE ASYMMETRIC UNIT    2 - ATOMS IN THE UNIT CELL:   12
     ATOM                 X/A                 Y/B                 Z/C    
 *******************************************************************************
      1 T  30 ZN   -5.000000000000E-01 -5.000000000000E-01  0.000000000000E+00
      2 F  30 ZN    0.000000000000E+00 -5.000000000000E-01 -5.000000000000E-01
      3 F  30 ZN    0.000000000000E+00  0.000000000000E+00  0.000000000000E+00
      4 F  30 ZN   -5.000000000000E-01  0.000000000000E+00 -5.000000000000E-01
      5 T   8 O     8.783020208391E-02 -8.783020208391E-02  4.121697979161E-01
      6 F   8 O     4.121697979161E-01  8.783020208391E-02 -8.783020208391E-02
      7 F   8 O    -4.121697979161E-01 -4.121697979161E-01 -4.121697979161E-01
      8 F   8 O    -8.783020208391E-02  4.121697979161E-01  8.783020208391E-02
      9 F   8 O    -8.783020208391E-02  8.783020208391E-02 -4.121697979161E-01
     10 F   8 O    -4.121697979161E-01 -8.783020208391E-02  8.783020208391E-02
     11 F   8 O     4.121697979161E-01  4.121697979161E-01  4.121697979161E-01
     12 F   8 O     8.783020208391E-02 -4.121697979161E-01 -8.783020208391E-02

 T = ATOM BELONGING TO THE ASYMMETRIC UNIT

 REFERENCE GEOMETRY WILL BE CHANGED

 TOTAL ENERGY(DFT)(AU)(  9) -7.7179136007609E+03     DE (AU)   -8.806E-05

 SYMMETRY ALLOWED FORCES  (COORDINATE, FORCE)

    1 -6.9637818E-05    2 -4.7075970E-05

 GRADIENT NORM     0.000084  GRADIENT THRESHOLD     0.500000

 HESSIAN UPDATE SKIPPED

 EIGENVALUES OF THE ESTIMATED HESSIAN
  0.1308      0.5847    

 PREDICTED ENERGY CHANGE    -0.991E-08

 MAX GRADIENT      0.000070  THRESHOLD              0.000045 CONVERGED NO
 RMS GRADIENT      0.000059  THRESHOLD              0.000030 CONVERGED NO
 MAX DISPLAC.      0.000292  THRESHOLD              0.000180 CONVERGED NO
 RMS DISPLAC.      0.000216  THRESHOLD              0.000120 CONVERGED NO
 TTTTTTTTTTTTTTTTTTTTTTTTTTTTTT OPTI        TELAPSE      306.12 TCPU      301.10
 *******************************************************************************
 COORDINATE AND CELL OPTIMIZATION - POINT    6
 *******************************************************************************
 LATTICE PARAMETERS (ANGSTROMS AND DEGREES) - BOHR = 0.5291772083 ANGSTROM
 PRIMITIVE CELL - CENTRING CODE 1/0 VOLUME=   115.406804 - DENSITY  5.521 g/cm^3
         A              B              C           ALPHA      BETA       GAMMA 
     4.86867149     4.86867149     4.86867149    90.000000  90.000000  90.000000
 *******************************************************************************
 ATOMS IN THE ASYMMETRIC UNIT    2 - ATOMS IN THE UNIT CELL:   12
     ATOM                 X/A                 Y/B                 Z/C    
 *******************************************************************************
      1 T  30 ZN   -5.000000000000E-01 -5.000000000000E-01  0.000000000000E+00
      2 F  30 ZN    0.000000000000E+00 -5.000000000000E-01 -5.000000000000E-01
      3 F  30 ZN    0.000000000000E+00  0.000000000000E+00  0.000000000000E+00
      4 F  30 ZN   -5.000000000000E-01  0.000000000000E+00 -5.000000000000E-01
      5 T   8 O     8.782828260099E-02 -8.782828260099E-02  4.121717173990E-01
      6 F   8 O     4.121717173990E-01  8.782828260099E-02 -8.782828260099E-02
      7 F   8 O    -4.121717173990E-01 -4.121717173990E-01 -4.121717173990E-01
      8 F   8 O    -8.782828260099E-02  4.121717173990E-01  8.782828260099E-02
      9 F   8 O    -8.782828260099E-02  8.782828260099E-02 -4.121717173990E-01
     10 F   8 O    -4.121717173990E-01 -8.782828260099E-02  8.782828260099E-02
     11 F   8 O     4.121717173990E-01  4.121717173990E-01  4.121717173990E-01
     12 F   8 O     8.782828260099E-02 -4.121717173990E-01 -8.782828260099E-02

 T = ATOM BELONGING TO THE ASYMMETRIC UNIT

 TOTAL ENERGY(DFT)(AU)(  8) -7.7179136006263E+03     DE (AU)    1.346E-07

 UPDATED TRUST RADIUS     0.762E-04
 ENERGY CHANGE > 0: STEP REJECTED. RETRYING WITH A NEW STEP

 EIGENVALUES OF THE ESTIMATED HESSIAN
  0.1308      0.5847    
 NEWTON STEP ( 0.3049158825E-03) EXCEEDS TRUST RADIUS ( 0.7622897062E-04)
 LEVEL SHIFT    -0.3426628253E+00

 PREDICTED ENERGY CHANGE    -0.502E-08

 MAX GRADIENT      0.000070  THRESHOLD              0.000045 CONVERGED NO
 RMS GRADIENT      0.000059  THRESHOLD              0.000030 CONVERGED NO
 MAX DISPLAC.      0.000060  THRESHOLD              0.000180 CONVERGED YES
 RMS DISPLAC.      0.000054  THRESHOLD              0.000120 CONVERGED YES
 TTTTTTTTTTTTTTTTTTTTTTTTTTTTTT OPTI        TELAPSE      335.91 TCPU      330.68
 *******************************************************************************
 COORDINATE AND CELL OPTIMIZATION - POINT    7
 *******************************************************************************
 LATTICE PARAMETERS (ANGSTROMS AND DEGREES) - BOHR = 0.5291772083 ANGSTROM
 PRIMITIVE CELL - CENTRING CODE 1/0 VOLUME=   115.411369 - DENSITY  5.520 g/cm^3
         A              B              C           ALPHA      BETA       GAMMA 
     4.86873568     4.86873568     4.86873568    90.000000  90.000000  90.000000
 *******************************************************************************
 ATOMS IN THE ASYMMETRIC UNIT    2 - ATOMS IN THE UNIT CELL:   12
     ATOM                 X/A                 Y/B                 Z/C    
 *******************************************************************************
      1 T  30 ZN    5.000000000000E-01  5.000000000000E-01  0.000000000000E+00
      2 F  30 ZN    0.000000000000E+00  5.000000000000E-01  5.000000000000E-01
      3 F  30 ZN    0.000000000000E+00  0.000000000000E+00  0.000000000000E+00
      4 F  30 ZN    5.000000000000E-01  0.000000000000E+00  5.000000000000E-01
      5 T   8 O     8.782915664428E-02 -8.782915664428E-02  4.121708433557E-01
      6 F   8 O     4.121708433557E-01  8.782915664428E-02 -8.782915664428E-02
      7 F   8 O    -4.121708433557E-01 -4.121708433557E-01 -4.121708433557E-01
      8 F   8 O    -8.782915664428E-02  4.121708433557E-01  8.782915664428E-02
      9 F   8 O    -8.782915664428E-02  8.782915664428E-02 -4.121708433557E-01
     10 F   8 O    -4.121708433557E-01 -8.782915664428E-02  8.782915664428E-02
     11 F   8 O     4.121708433557E-01  4.121708433557E-01  4.121708433557E-01
     12 F   8 O     8.782915664428E-02 -4.121708433557E-01 -8.782915664428E-02

 T = ATOM BELONGING TO THE ASYMMETRIC UNIT

 TOTAL ENERGY(DFT)(AU)(  8) -7.7179136007582E+03     DE (AU)    2.699E-09

 UPDATED TRUST RADIUS     0.191E-04

 SYMMETRY ALLOWED FORCES  (COORDINATE, FORCE)

    1 -3.8491698E-05    2 -3.5449494E-05

 GRADIENT NORM     0.000052  GRADIENT THRESHOLD     0.500000

 EIGENVALUES OF THE ESTIMATED HESSIAN
  0.1310      0.5830    
 NEWTON STEP ( 0.2353184627E-03) EXCEEDS TRUST RADIUS ( 0.1905724265E-04)
 LEVEL SHIFT    -0.1403638522E+01

 PREDICTED ENERGY CHANGE    -0.919E-09

 MAX GRADIENT      0.000038  THRESHOLD              0.000045 CONVERGED YES
 RMS GRADIENT      0.000037  THRESHOLD              0.000030 CONVERGED NO
 MAX DISPLAC.      0.000015  THRESHOLD              0.000180 CONVERGED YES
 RMS DISPLAC.      0.000013  THRESHOLD              0.000120 CONVERGED YES
 TTTTTTTTTTTTTTTTTTTTTTTTTTTTTT OPTI        TELAPSE      383.71 TCPU      378.18
 *******************************************************************************
 COORDINATE AND CELL OPTIMIZATION - POINT    8
 *******************************************************************************
 LATTICE PARAMETERS (ANGSTROMS AND DEGREES) - BOHR = 0.5291772083 ANGSTROM
 PRIMITIVE CELL - CENTRING CODE 1/0 VOLUME=   115.411083 - DENSITY  5.520 g/cm^3
         A              B              C           ALPHA      BETA       GAMMA 
     4.86873166     4.86873166     4.86873166    90.000000  90.000000  90.000000
 *******************************************************************************
 ATOMS IN THE ASYMMETRIC UNIT    2 - ATOMS IN THE UNIT CELL:   12
     ATOM                 X/A                 Y/B                 Z/C    
 *******************************************************************************
      1 T  30 ZN   -5.000000000000E-01 -5.000000000000E-01  0.000000000000E+00
      2 F  30 ZN    0.000000000000E+00 -5.000000000000E-01 -5.000000000000E-01
      3 F  30 ZN    0.000000000000E+00  0.000000000000E+00  0.000000000000E+00
      4 F  30 ZN   -5.000000000000E-01  0.000000000000E+00 -5.000000000000E-01
      5 T   8 O     8.782888493113E-02 -8.782888493113E-02  4.121711150689E-01
      6 F   8 O     4.121711150689E-01  8.782888493113E-02 -8.782888493113E-02
      7 F   8 O    -4.121711150689E-01 -4.121711150689E-01 -4.121711150689E-01
      8 F   8 O    -8.782888493113E-02  4.121711150689E-01  8.782888493113E-02
      9 F   8 O    -8.782888493113E-02  8.782888493113E-02 -4.121711150689E-01
     10 F   8 O    -4.121711150689E-01 -8.782888493113E-02  8.782888493113E-02
     11 F   8 O     4.121711150689E-01  4.121711150689E-01  4.121711150689E-01
     12 F   8 O     8.782888493113E-02 -4.121711150689E-01 -8.782888493113E-02

 T = ATOM BELONGING TO THE ASYMMETRIC UNIT

 TOTAL ENERGY(DFT)(AU)(  9) -7.7179136007578E+03     DE (AU)    4.356E-10

 UPDATED TRUST RADIUS     0.476E-05
 INFORMATION **** OPTGEN **** TOO SMALL TRUST RADIUS - INDICES UPDATED IN NEXT POINT

 SYMMETRY ALLOWED FORCES  (COORDINATE, FORCE)

    1 -3.0463094E-05    2 -3.2564971E-05

 GRADIENT NORM     0.000045  GRADIENT THRESHOLD     0.500000

 EIGENVALUES OF THE ESTIMATED HESSIAN
  0.1310      0.5830    

 PREDICTED ENERGY CHANGE    -0.396E-08

 MAX GRADIENT      0.000033  THRESHOLD              0.000045 CONVERGED YES
 RMS GRADIENT      0.000032  THRESHOLD              0.000030 CONVERGED NO
 MAX DISPLAC.      0.000217  THRESHOLD              0.000180 CONVERGED NO
 RMS DISPLAC.      0.000155  THRESHOLD              0.000120 CONVERGED NO
 TTTTTTTTTTTTTTTTTTTTTTTTTTTTTT OPTI        TELAPSE      434.48 TCPU      428.65
 *******************************************************************************
 COORDINATE AND CELL OPTIMIZATION - POINT    9
 *******************************************************************************
 LATTICE PARAMETERS (ANGSTROMS AND DEGREES) - BOHR = 0.5291772083 ANGSTROM
 PRIMITIVE CELL - CENTRING CODE 1/0 VOLUME=   115.406818 - DENSITY  5.521 g/cm^3
         A              B              C           ALPHA      BETA       GAMMA 
     4.86867167     4.86867167     4.86867167    90.000000  90.000000  90.000000
 *******************************************************************************
 ATOMS IN THE ASYMMETRIC UNIT    2 - ATOMS IN THE UNIT CELL:   12
     ATOM                 X/A                 Y/B                 Z/C    
 *******************************************************************************
      1 T  30 ZN   -5.000000000000E-01 -5.000000000000E-01  0.000000000000E+00
      2 F  30 ZN    0.000000000000E+00 -5.000000000000E-01 -5.000000000000E-01
      3 F  30 ZN    0.000000000000E+00  0.000000000000E+00  0.000000000000E+00
      4 F  30 ZN   -5.000000000000E-01  0.000000000000E+00 -5.000000000000E-01
      5 T   8 O     8.782827473427E-02 -8.782827473427E-02  4.121717252657E-01
      6 F   8 O     4.121717252657E-01  8.782827473427E-02 -8.782827473427E-02
      7 F   8 O    -4.121717252657E-01 -4.121717252657E-01 -4.121717252657E-01
      8 F   8 O    -8.782827473427E-02  4.121717252657E-01  8.782827473427E-02
      9 F   8 O    -8.782827473427E-02  8.782827473427E-02 -4.121717252657E-01
     10 F   8 O    -4.121717252657E-01 -8.782827473427E-02  8.782827473427E-02
     11 F   8 O     4.121717252657E-01  4.121717252657E-01  4.121717252657E-01
     12 F   8 O     8.782827473427E-02 -4.121717252657E-01 -8.782827473427E-02

 T = ATOM BELONGING TO THE ASYMMETRIC UNIT

 REFERENCE GEOMETRY WILL BE CHANGED

 TOTAL ENERGY(DFT)(AU)(  8) -7.7179136004754E+03     DE (AU)    2.824E-07

 SYMMETRY ALLOWED FORCES  (COORDINATE, FORCE)

    1  4.7795444E-08    2 -4.3021679E-08

 GRADIENT NORM     0.000000  GRADIENT THRESHOLD     0.500000

 HESSIAN UPDATE SKIPPED

 EIGENVALUES OF THE ESTIMATED HESSIAN
  0.1310      0.5830    

 PREDICTED ENERGY CHANGE    -0.109E-13

 MAX GRADIENT      0.000000  THRESHOLD              0.000045 CONVERGED YES
 RMS GRADIENT      0.000000  THRESHOLD              0.000030 CONVERGED YES
 MAX DISPLAC.      0.000000  THRESHOLD              0.000180 CONVERGED YES
 RMS DISPLAC.      0.000000  THRESHOLD              0.000120 CONVERGED YES

 CONVERGENCE TESTS SATISFIED AFTER   9 ENERGY AND GRADIENT CALCULATIONS

 ******************************************************************
 * OPT END - CONVERGED * E(AU):  -7.717913600475E+03  POINTS    9 *
 ******************************************************************

   BAND GAP:                      5.3744  eV 

 EIGENVECTORS IN FORTRAN UNIT  8

 NEIGHBORS OF THE NON-EQUIVALENT ATOMS

 N = NUMBER OF NEIGHBORS AT DISTANCE R
    ATOM  N     R/ANG      R/AU   NEIGHBORS (ATOM LABELS AND CELL INDICES)
   1 ZN   6     2.0959     3.9606    6 O    0 0 0    7 O    1 1 0    8 O    1 0 0
                                    10 O    1 1 0   11 O    0 0 0   12 O    0 1 0
   1 ZN   6     2.9251     5.5277    6 O    0 1 0    7 O    1 1 1    8 O    0 0 0
                                    10 O    1 0 0   11 O    0 0-1   12 O    1 1 0
   1 ZN  12     3.4427     6.5057    2 ZN   0 0 0    2 ZN   1 0 0    2 ZN   0 0-1
                                     2 ZN   1 0-1    3 ZN   0 1 0    3 ZN   0 0 0
                                     3 ZN   1 1 0    3 ZN   1 0 0    4 ZN   0 0 0
                                     4 ZN   0 0-1    4 ZN   0 1 0    4 ZN   0 1-1
   1 ZN   2     3.4758     6.5682    5 O    0 1 0    9 O    1 0 0
   1 ZN   6     4.0305     7.6165    5 O    0 0 0    5 O    1 1 0    5 O    0 1-1
                                     9 O    1 1 0    9 O    0 0 0    9 O    1 0 1
   1 ZN   6     4.5176     8.5370    5 O    1 0 0    5 O    0 0-1    5 O    1 1-1
                                     9 O    0 1 0    9 O    1 1 1    9 O    0 0 1

   5 O    1     1.4813     2.7992    9 O    0 0 1
   5 O    3     2.0959     3.9606    2 ZN   0-1 0    3 ZN   0 0 0    4 ZN   0 0 0
   5 O    6     2.9017     5.4833   10 O    0 0 0   10 O    1 0 0   11 O    0 0 0
                                    11 O    0-1 0   12 O    0 0 0   12 O    0 0 1
   5 O    3     2.9251     5.5277    2 ZN   0 0 0    3 ZN   0 0 1    4 ZN  -1 0 0
   5 O    6     3.0251     5.7165    6 O    0 0 0    6 O    0 0 1    7 O    1 0 1
                                     7 O    0 0 1    8 O    0 0 0    8 O    0-1 0
   5 O    1     3.4758     6.5682    1 ZN   0-1 0


 FINAL OPTIMIZED GEOMETRY - DIMENSIONALITY OF THE SYSTEM      3
 (NON PERIODIC DIRECTION: LATTICE PARAMETER FORMALLY SET TO 500)
 *******************************************************************************
 LATTICE PARAMETERS (ANGSTROMS AND DEGREES) - BOHR = 0.5291772083 ANGSTROM
 PRIMITIVE CELL - CENTRING CODE 1/0 VOLUME=   115.406818 - DENSITY  5.521 g/cm^3
         A              B              C           ALPHA      BETA       GAMMA 
     4.86867167     4.86867167     4.86867167    90.000000  90.000000  90.000000
 *******************************************************************************
 ATOMS IN THE ASYMMETRIC UNIT    2 - ATOMS IN THE UNIT CELL:   12
     ATOM                 X/A                 Y/B                 Z/C    
 *******************************************************************************
      1 T  30 ZN   -5.000000000000E-01 -5.000000000000E-01  0.000000000000E+00
      2 F  30 ZN    0.000000000000E+00 -5.000000000000E-01 -5.000000000000E-01
      3 F  30 ZN    0.000000000000E+00  0.000000000000E+00  0.000000000000E+00
      4 F  30 ZN   -5.000000000000E-01  0.000000000000E+00 -5.000000000000E-01
      5 T   8 O     8.782827473427E-02 -8.782827473427E-02  4.121717252657E-01
      6 F   8 O     4.121717252657E-01  8.782827473427E-02 -8.782827473427E-02
      7 F   8 O    -4.121717252657E-01 -4.121717252657E-01 -4.121717252657E-01
      8 F   8 O    -8.782827473427E-02  4.121717252657E-01  8.782827473427E-02
      9 F   8 O    -8.782827473427E-02  8.782827473427E-02 -4.121717252657E-01
     10 F   8 O    -4.121717252657E-01 -8.782827473427E-02  8.782827473427E-02
     11 F   8 O     4.121717252657E-01  4.121717252657E-01  4.121717252657E-01
     12 F   8 O     8.782827473427E-02 -4.121717252657E-01 -8.782827473427E-02

 T = ATOM BELONGING TO THE ASYMMETRIC UNIT
 INFORMATION **** fort.34 **** GEOMETRY OUTPUT FILE

 DIRECT LATTICE VECTORS CARTESIAN COMPONENTS (ANGSTROM)
          X                    Y                    Z
   0.486867167472E+01   0.000000000000E+00   0.000000000000E+00
   0.000000000000E+00   0.486867167472E+01   0.000000000000E+00
   0.000000000000E+00   0.000000000000E+00   0.486867167472E+01


 CARTESIAN COORDINATES - PRIMITIVE CELL
 *******************************************************************************
 *      ATOM          X(ANGSTROM)         Y(ANGSTROM)         Z(ANGSTROM)
 *******************************************************************************
    1    30 ZN    2.434335837358E+00  2.434335837358E+00  0.000000000000E+00
    2    30 ZN    0.000000000000E+00  2.434335837358E+00  2.434335837358E+00
    3    30 ZN    0.000000000000E+00  0.000000000000E+00  0.000000000000E+00
    4    30 ZN    2.434335837358E+00  0.000000000000E+00  2.434335837358E+00
    5     8 O     4.276070334379E-01 -4.276070334379E-01  2.006728803920E+00
    6     8 O     2.006728803920E+00  4.276070334379E-01 -4.276070334379E-01
    7     8 O    -2.006728803920E+00 -2.006728803920E+00 -2.006728803920E+00
    8     8 O    -4.276070334379E-01  2.006728803920E+00  4.276070334379E-01
    9     8 O    -4.276070334379E-01  4.276070334379E-01 -2.006728803920E+00
   10     8 O    -2.006728803920E+00 -4.276070334379E-01  4.276070334379E-01
   11     8 O     2.006728803920E+00  2.006728803920E+00  2.006728803920E+00
   12     8 O     4.276070334379E-01 -2.006728803920E+00 -4.276070334379E-01

 DFT PARAMETERS

     ATOM       ELECTRONS   NET CHARGE   R(ANGSTROM)
   1  30  ZN     30.0000      0.0000     1.37000000
   5   8  O       8.0000      0.0000     0.74000000

 SIZE OF GRID=      23683
 TTTTTTTTTTTTTTTTTTTTTTTTTTTTTT MAKE_GRID2  TELAPSE      483.83 TCPU      477.68
 BECKE WEIGHT FUNCTION
 RADSAFE =     2.00
 TOLERANCES - DENSITY:10**- 6; POTENTIAL:10**- 9; GRID WGT:10**-14

 RADIAL INTEGRATION  - INTERVALS (POINTS,UPPER LIMIT):            1( 99,  4.0*R)

 ANGULAR INTEGRATION - INTERVALS (ACCURACY LEVEL [N. POINTS] UPPER LIMIT):
  1(  6[ 146]   0.2)  2( 11[ 302]   0.5)  3( 14[ 590]   0.9)  4( 18[1454]   3.5)
  5( 14[ 590]9999.0)
 EEEEEEEEEE INT_CALC TERMINATION  DATE 05 09 2023 TIME 17:28:36.7

 *******************************************************************************
 ICSD_CollCode38979.cif                                                          
 CRYSTAL - SCF - TYPE OF CALCULATION :  RESTRICTED CLOSED SHELL
 *******************************************************************************

 CAPPA:IS1  8;IS2  8;IS3  8; K PTS MONK NET  45; SYMMOPS:K SPACE  24;G SPACE  24

[...]

    MODES    FREQUENCIES          I_xx    I_xy    I_xz    I_yy    I_yz    I_zz
  ----------------------------------------------------------------------------
   22-  24      424.4700 (Fg )    0.00   72.33   72.33    0.00   72.33    0.00
   25-  26      434.3679 (Eg )  706.43    0.00    0.00  706.42    0.00  706.42
   30-  32      493.5839 (Fg )    0.00   69.24   69.24    0.00   69.24    0.00
   33-  35      974.9766 (Fg )    0.00  519.69  519.69    0.00  519.69    0.00
   36-  36      976.3754 (Ag ) 1000.00    0.00    0.00 1000.00    0.00 1000.00

 <RAMAN><RAMAN><RAMAN><RAMAN><RAMAN><RAMAN><RAMAN><RAMAN><RAMAN><RAMAN><RAMAN>
 <RAMAN><RAMAN><RAMAN><RAMAN><RAMAN><RAMAN><RAMAN><RAMAN><RAMAN><RAMAN><RAMAN>


 NORMAL MODES NORMALIZED TO CLASSICAL AMPLITUDES (IN BOHR)

 FREQ(CM**-1)      0.00      0.00      0.00    137.57    137.57    141.02

 AT.   1 ZN X    -0.0000    0.0511   -0.0000   -0.0443   -0.0048    0.0043
            Y     0.0000   -0.0000    0.0511   -0.0263    0.0360   -0.0081
            Z     0.0511   -0.0000    0.0000   -0.0180   -0.0408   -0.0527
 AT.   2 ZN X     0.0000    0.0511   -0.0000    0.0443    0.0048    0.0043
            Y    -0.0000   -0.0000    0.0511    0.0263   -0.0360   -0.0081
            Z     0.0511    0.0000   -0.0000   -0.0180   -0.0408    0.0527
 AT.   3 ZN X     0.0000    0.0511    0.0000   -0.0443   -0.0048    0.0043
            Y     0.0000    0.0000    0.0511    0.0263   -0.0360    0.0081
            Z     0.0511    0.0000    0.0000    0.0180    0.0408    0.0527
 AT.   4 ZN X    -0.0000    0.0511    0.0000    0.0443    0.0048    0.0043
            Y    -0.0000    0.0000    0.0511   -0.0263    0.0360    0.0081
            Z     0.0511   -0.0000   -0.0000    0.0180    0.0408   -0.0527
 AT.   5 O  X    -0.0000    0.0511    0.0000    0.0214    0.0112   -0.0086
            Y    -0.0000   -0.0000    0.0511    0.0204   -0.0130   -0.0043
            Z     0.0511    0.0000    0.0000    0.0010    0.0242    0.0294
 AT.   6 O  X     0.0000    0.0511    0.0000   -0.0214   -0.0112   -0.0086
            Y     0.0000   -0.0000    0.0511   -0.0204    0.0130   -0.0043
            Z     0.0511   -0.0000   -0.0000    0.0010    0.0242   -0.0294
 AT.   7 O  X     0.0000    0.0511   -0.0000    0.0214    0.0112   -0.0086
            Y    -0.0000    0.0000    0.0511   -0.0204    0.0130    0.0043
            Z     0.0511   -0.0000    0.0000   -0.0010   -0.0242   -0.0294
 AT.   8 O  X    -0.0000    0.0511   -0.0000   -0.0214   -0.0112   -0.0086
            Y     0.0000    0.0000    0.0511    0.0204   -0.0130    0.0043
            Z     0.0511    0.0000   -0.0000   -0.0010   -0.0242    0.0294
 AT.   9 O  X    -0.0000    0.0511    0.0000    0.0214    0.0112   -0.0086
            Y    -0.0000   -0.0000    0.0511    0.0204   -0.0130   -0.0043
            Z     0.0511    0.0000    0.0000    0.0010    0.0242    0.0294
 AT.  10 O  X     0.0000    0.0511    0.0000   -0.0214   -0.0112   -0.0086
            Y     0.0000   -0.0000    0.0511   -0.0204    0.0130   -0.0043
            Z     0.0511   -0.0000   -0.0000    0.0010    0.0242   -0.0294
 AT.  11 O  X     0.0000    0.0511   -0.0000    0.0214    0.0112   -0.0086
            Y    -0.0000    0.0000    0.0511   -0.0204    0.0130    0.0043
            Z     0.0511   -0.0000    0.0000   -0.0010   -0.0242   -0.0294
 AT.  12 O  X    -0.0000    0.0511   -0.0000   -0.0214   -0.0112   -0.0086
            Y     0.0000    0.0000    0.0511    0.0204   -0.0130    0.0043
            Z     0.0511    0.0000   -0.0000   -0.0010   -0.0242    0.0294

 FREQ(CM**-1)    141.02    141.02    156.08    207.51    207.51    207.51

 AT.   1 ZN X    -0.0081   -0.0527   -0.0289    0.0450    0.0050   -0.0034
            Y     0.0527    0.0043    0.0289    0.0034    0.0450    0.0050
            Z     0.0043    0.0081    0.0289    0.0050   -0.0034   -0.0450
 AT.   2 ZN X     0.0081   -0.0527    0.0289   -0.0450    0.0050   -0.0034
            Y    -0.0527    0.0043   -0.0289   -0.0034    0.0450    0.0050
            Z     0.0043   -0.0081    0.0289    0.0050    0.0034    0.0450
 AT.   3 ZN X     0.0081    0.0527   -0.0289   -0.0450    0.0050    0.0034
            Y     0.0527    0.0043   -0.0289    0.0034   -0.0450    0.0050
            Z     0.0043    0.0081   -0.0289    0.0050    0.0034   -0.0450
 AT.   4 ZN X    -0.0081    0.0527    0.0289    0.0450    0.0050    0.0034
            Y    -0.0527    0.0043    0.0289   -0.0034   -0.0450    0.0050
            Z     0.0043   -0.0081   -0.0289    0.0050   -0.0034    0.0450
 AT.   5 O  X    -0.0043    0.0294    0.0184    0.0143   -0.0100    0.0101
            Y    -0.0294   -0.0086   -0.0184   -0.0101    0.0143   -0.0100
            Z    -0.0086    0.0043   -0.0184   -0.0100    0.0101   -0.0143
 AT.   6 O  X     0.0043    0.0294   -0.0184   -0.0143   -0.0100    0.0101
            Y     0.0294   -0.0086    0.0184    0.0101    0.0143   -0.0100
            Z    -0.0086   -0.0043   -0.0184   -0.0100   -0.0101    0.0143
 AT.   7 O  X     0.0043   -0.0294    0.0184   -0.0143   -0.0100   -0.0101
            Y    -0.0294   -0.0086    0.0184   -0.0101   -0.0143   -0.0100
            Z    -0.0086    0.0043    0.0184   -0.0100   -0.0101   -0.0143
 AT.   8 O  X    -0.0043   -0.0294   -0.0184    0.0143   -0.0100   -0.0101
            Y     0.0294   -0.0086   -0.0184    0.0101   -0.0143   -0.0100
            Z    -0.0086   -0.0043    0.0184   -0.0100    0.0101    0.0143
 AT.   9 O  X    -0.0043    0.0294    0.0184    0.0143   -0.0100    0.0101
            Y    -0.0294   -0.0086   -0.0184   -0.0101    0.0143   -0.0100
            Z    -0.0086    0.0043   -0.0184   -0.0100    0.0101   -0.0143
 AT.  10 O  X     0.0043    0.0294   -0.0184   -0.0143   -0.0100    0.0101
            Y     0.0294   -0.0086    0.0184    0.0101    0.0143   -0.0100
            Z    -0.0086   -0.0043   -0.0184   -0.0100   -0.0101    0.0143
 AT.  11 O  X     0.0043   -0.0294    0.0184   -0.0143   -0.0100   -0.0101
            Y    -0.0294   -0.0086    0.0184   -0.0101   -0.0143   -0.0100
            Z    -0.0086    0.0043    0.0184   -0.0100   -0.0101   -0.0143
 AT.  12 O  X    -0.0043   -0.0294   -0.0184    0.0143   -0.0100   -0.0101
            Y     0.0294   -0.0086   -0.0184    0.0101   -0.0143   -0.0100
            Z    -0.0086   -0.0043    0.0184   -0.0100    0.0101    0.0143

 FREQ(CM**-1)    286.81    286.81    286.81    312.39    365.78    365.78

 AT.   1 ZN X    -0.0098    0.0203    0.0104    0.0092   -0.0025   -0.0086
            Y    -0.0104   -0.0098    0.0203   -0.0092   -0.0100   -0.0025
            Z     0.0203    0.0104    0.0098   -0.0092   -0.0086    0.0100
 AT.   2 ZN X     0.0098    0.0203    0.0104   -0.0092    0.0025   -0.0086
            Y     0.0104   -0.0098    0.0203    0.0092    0.0100   -0.0025
            Z     0.0203   -0.0104   -0.0098   -0.0092   -0.0086   -0.0100
 AT.   3 ZN X     0.0098    0.0203   -0.0104    0.0092    0.0025   -0.0086
            Y    -0.0104    0.0098    0.0203    0.0092   -0.0100    0.0025
            Z     0.0203   -0.0104    0.0098    0.0092   -0.0086   -0.0100
 AT.   4 ZN X    -0.0098    0.0203   -0.0104   -0.0092   -0.0025   -0.0086
            Y     0.0104    0.0098    0.0203   -0.0092    0.0100    0.0025
            Z     0.0203    0.0104   -0.0098    0.0092   -0.0086    0.0100
 AT.   5 O  X     0.0127   -0.0405    0.0159    0.0289    0.0079    0.0172
            Y    -0.0159    0.0127   -0.0405   -0.0289   -0.0431    0.0079
            Z    -0.0405    0.0159   -0.0127   -0.0289    0.0172    0.0431
 AT.   6 O  X    -0.0127   -0.0405    0.0159   -0.0289   -0.0079    0.0172
            Y     0.0159    0.0127   -0.0405    0.0289    0.0431    0.0079
            Z    -0.0405   -0.0159    0.0127   -0.0289    0.0172   -0.0431
 AT.   7 O  X    -0.0127   -0.0405   -0.0159    0.0289   -0.0079    0.0172
            Y    -0.0159   -0.0127   -0.0405    0.0289   -0.0431   -0.0079
            Z    -0.0405   -0.0159   -0.0127    0.0289    0.0172   -0.0431
 AT.   8 O  X     0.0127   -0.0405   -0.0159   -0.0289    0.0079    0.0172
            Y     0.0159   -0.0127   -0.0405   -0.0289    0.0431   -0.0079
            Z    -0.0405    0.0159    0.0127    0.0289    0.0172    0.0431
 AT.   9 O  X     0.0127   -0.0405    0.0159    0.0289    0.0079    0.0172
            Y    -0.0159    0.0127   -0.0405   -0.0289   -0.0431    0.0079
            Z    -0.0405    0.0159   -0.0127   -0.0289    0.0172    0.0431
 AT.  10 O  X    -0.0127   -0.0405    0.0159   -0.0289   -0.0079    0.0172
            Y     0.0159    0.0127   -0.0405    0.0289    0.0431    0.0079
            Z    -0.0405   -0.0159    0.0127   -0.0289    0.0172   -0.0431
 AT.  11 O  X    -0.0127   -0.0405   -0.0159    0.0289   -0.0079    0.0172
            Y    -0.0159   -0.0127   -0.0405    0.0289   -0.0431   -0.0079
            Z    -0.0405   -0.0159   -0.0127    0.0289    0.0172   -0.0431
 AT.  12 O  X     0.0127   -0.0405   -0.0159   -0.0289    0.0079    0.0172
            Y     0.0159   -0.0127   -0.0405   -0.0289    0.0431   -0.0079
            Z    -0.0405    0.0159    0.0127    0.0289    0.0172    0.0431

 FREQ(CM**-1)    365.78    394.67    394.67    424.47    424.47    424.47

 AT.   1 ZN X     0.0100    0.0079   -0.0063    0.0000    0.0000    0.0000
            Y    -0.0086   -0.0015   -0.0100    0.0000    0.0000    0.0000
            Z     0.0025    0.0094    0.0037    0.0000    0.0000    0.0000
 AT.   2 ZN X     0.0100   -0.0079    0.0063    0.0000    0.0000    0.0000
            Y    -0.0086    0.0015    0.0100    0.0000    0.0000    0.0000
            Z    -0.0025    0.0094    0.0037    0.0000    0.0000    0.0000
 AT.   3 ZN X    -0.0100    0.0079   -0.0063    0.0000    0.0000    0.0000
            Y    -0.0086    0.0015    0.0100    0.0000    0.0000    0.0000
            Z     0.0025   -0.0094   -0.0037    0.0000    0.0000    0.0000
 AT.   4 ZN X    -0.0100   -0.0079    0.0063    0.0000    0.0000    0.0000
            Y    -0.0086   -0.0015   -0.0100    0.0000    0.0000    0.0000
            Z    -0.0025   -0.0094   -0.0037    0.0000    0.0000    0.0000
 AT.   5 O  X     0.0431    0.0356   -0.0108    0.0266    0.0373    0.0109
            Y     0.0172    0.0084   -0.0363   -0.0109    0.0266    0.0373
            Z    -0.0079    0.0272    0.0254    0.0373    0.0109   -0.0266
 AT.   6 O  X     0.0431   -0.0356    0.0108   -0.0266    0.0373    0.0109
            Y     0.0172   -0.0084    0.0363    0.0109    0.0266    0.0373
            Z     0.0079    0.0272    0.0254    0.0373   -0.0109    0.0266
 AT.   7 O  X    -0.0431    0.0356   -0.0108   -0.0266    0.0373   -0.0109
            Y     0.0172   -0.0084    0.0363   -0.0109   -0.0266    0.0373
            Z    -0.0079   -0.0272   -0.0254    0.0373   -0.0109   -0.0266
 AT.   8 O  X    -0.0431   -0.0356    0.0108    0.0266    0.0373   -0.0109
            Y     0.0172    0.0084   -0.0363    0.0109   -0.0266    0.0373
            Z     0.0079   -0.0272   -0.0254    0.0373    0.0109    0.0266
 AT.   9 O  X     0.0431    0.0356   -0.0108   -0.0266   -0.0373   -0.0109
            Y     0.0172    0.0084   -0.0363    0.0109   -0.0266   -0.0373
            Z    -0.0079    0.0272    0.0254   -0.0373   -0.0109    0.0266
 AT.  10 O  X     0.0431   -0.0356    0.0108    0.0266   -0.0373   -0.0109
            Y     0.0172   -0.0084    0.0363   -0.0109   -0.0266   -0.0373
            Z     0.0079    0.0272    0.0254   -0.0373    0.0109   -0.0266
 AT.  11 O  X    -0.0431    0.0356   -0.0108    0.0266   -0.0373    0.0109
            Y     0.0172   -0.0084    0.0363    0.0109    0.0266   -0.0373
            Z    -0.0079   -0.0272   -0.0254   -0.0373    0.0109    0.0266
 AT.  12 O  X    -0.0431   -0.0356    0.0108   -0.0266   -0.0373    0.0109
            Y     0.0172    0.0084   -0.0363   -0.0109    0.0266   -0.0373
            Z     0.0079   -0.0272   -0.0254   -0.0373   -0.0109   -0.0266

 FREQ(CM**-1)    434.37    434.37    444.95    444.95    444.95    493.58

 AT.   1 ZN X     0.0000    0.0000   -0.0050   -0.0032   -0.0046    0.0000
            Y     0.0000    0.0000    0.0046   -0.0050   -0.0032    0.0000
            Z     0.0000    0.0000   -0.0032   -0.0046    0.0050    0.0000
 AT.   2 ZN X     0.0000    0.0000    0.0050   -0.0032   -0.0046    0.0000
            Y     0.0000    0.0000   -0.0046   -0.0050   -0.0032    0.0000
            Z     0.0000    0.0000   -0.0032    0.0046   -0.0050    0.0000
 AT.   3 ZN X     0.0000    0.0000    0.0050   -0.0032    0.0046    0.0000
            Y     0.0000    0.0000    0.0046    0.0050   -0.0032    0.0000
            Z     0.0000    0.0000   -0.0032    0.0046    0.0050    0.0000
 AT.   4 ZN X     0.0000    0.0000   -0.0050   -0.0032    0.0046    0.0000
            Y     0.0000    0.0000   -0.0046    0.0050   -0.0032    0.0000
            Z     0.0000    0.0000   -0.0032   -0.0046   -0.0050    0.0000
 AT.   5 O  X     0.0190    0.0329    0.0431    0.0064   -0.0102    0.0259
            Y    -0.0190    0.0329    0.0102    0.0431    0.0064    0.0342
            Z     0.0380    0.0000    0.0064   -0.0102   -0.0431   -0.0084
 AT.   6 O  X    -0.0190   -0.0329   -0.0431    0.0064   -0.0102   -0.0259
            Y     0.0190   -0.0329   -0.0102    0.0431    0.0064   -0.0342
            Z     0.0380    0.0000    0.0064    0.0102    0.0431   -0.0084
 AT.   7 O  X     0.0190    0.0329   -0.0431    0.0064    0.0102   -0.0259
            Y     0.0190   -0.0329    0.0102   -0.0431    0.0064    0.0342
            Z    -0.0380    0.0000    0.0064    0.0102   -0.0431   -0.0084
 AT.   8 O  X    -0.0190   -0.0329    0.0431    0.0064    0.0102    0.0259
            Y    -0.0190    0.0329   -0.0102   -0.0431    0.0064   -0.0342
            Z    -0.0380    0.0000    0.0064   -0.0102    0.0431   -0.0084
 AT.   9 O  X    -0.0190   -0.0329    0.0431    0.0064   -0.0102   -0.0259
            Y     0.0190   -0.0329    0.0102    0.0431    0.0064   -0.0342
            Z    -0.0380    0.0000    0.0064   -0.0102   -0.0431    0.0084
 AT.  10 O  X     0.0190    0.0329   -0.0431    0.0064   -0.0102    0.0259
            Y    -0.0190    0.0329   -0.0102    0.0431    0.0064    0.0342
            Z    -0.0380    0.0000    0.0064    0.0102    0.0431    0.0084
 AT.  11 O  X    -0.0190   -0.0329   -0.0431    0.0064    0.0102    0.0259
            Y    -0.0190    0.0329    0.0102   -0.0431    0.0064   -0.0342
            Z     0.0380    0.0000    0.0064    0.0102   -0.0431    0.0084
 AT.  12 O  X     0.0190    0.0329    0.0431    0.0064    0.0102   -0.0259
            Y     0.0190   -0.0329   -0.0102   -0.0431    0.0064    0.0342
            Z     0.0380    0.0000    0.0064   -0.0102    0.0431    0.0084

 FREQ(CM**-1)    493.58    493.58    974.98    974.98    974.98    976.38

 AT.   1 ZN X     0.0000    0.0000    0.0000    0.0000    0.0000    0.0000
            Y     0.0000    0.0000    0.0000    0.0000    0.0000    0.0000
            Z     0.0000    0.0000    0.0000    0.0000    0.0000    0.0000
 AT.   2 ZN X     0.0000    0.0000    0.0000    0.0000    0.0000    0.0000
            Y     0.0000    0.0000    0.0000    0.0000    0.0000    0.0000
            Z     0.0000    0.0000    0.0000    0.0000    0.0000    0.0000
 AT.   3 ZN X     0.0000    0.0000    0.0000    0.0000    0.0000    0.0000
            Y     0.0000    0.0000    0.0000    0.0000    0.0000    0.0000
            Z     0.0000    0.0000    0.0000    0.0000    0.0000    0.0000
 AT.   4 ZN X     0.0000    0.0000    0.0000    0.0000    0.0000    0.0000
            Y     0.0000    0.0000    0.0000    0.0000    0.0000    0.0000
            Z     0.0000    0.0000    0.0000    0.0000    0.0000    0.0000
 AT.   5 O  X    -0.0084   -0.0342   -0.0179    0.0180   -0.0180    0.0179
            Y     0.0259   -0.0084    0.0180   -0.0179    0.0180   -0.0179
            Z    -0.0342   -0.0259    0.0180   -0.0180    0.0179   -0.0179
 AT.   6 O  X    -0.0084   -0.0342    0.0179    0.0180   -0.0180   -0.0179
            Y     0.0259   -0.0084   -0.0180   -0.0179    0.0180    0.0179
            Z     0.0342    0.0259    0.0180    0.0180   -0.0179   -0.0179
 AT.   7 O  X    -0.0084    0.0342    0.0179    0.0180    0.0180    0.0179
            Y    -0.0259   -0.0084    0.0180    0.0179    0.0180    0.0179
            Z     0.0342   -0.0259    0.0180    0.0180    0.0179    0.0179
 AT.   8 O  X    -0.0084    0.0342   -0.0179    0.0180    0.0180   -0.0179
            Y    -0.0259   -0.0084   -0.0180    0.0179    0.0180   -0.0179
            Z    -0.0342    0.0259    0.0180   -0.0180   -0.0179    0.0179
 AT.   9 O  X     0.0084    0.0342    0.0179   -0.0180    0.0180   -0.0179
            Y    -0.0259    0.0084   -0.0180    0.0179   -0.0180    0.0179
            Z     0.0342    0.0259   -0.0180    0.0180   -0.0179    0.0179
 AT.  10 O  X     0.0084    0.0342   -0.0179   -0.0180    0.0180    0.0179
            Y    -0.0259    0.0084    0.0180    0.0179   -0.0180   -0.0179
            Z    -0.0342   -0.0259   -0.0180   -0.0180    0.0179    0.0179
 AT.  11 O  X     0.0084   -0.0342   -0.0179   -0.0180   -0.0180   -0.0179
            Y     0.0259    0.0084   -0.0180   -0.0179   -0.0180   -0.0179
            Z    -0.0342    0.0259   -0.0180   -0.0180   -0.0179   -0.0179
 AT.  12 O  X     0.0084   -0.0342    0.0179   -0.0180   -0.0180    0.0179
            Y     0.0259    0.0084    0.0180   -0.0179   -0.0180    0.0179
            Z     0.0342   -0.0259   -0.0180    0.0180    0.0179   -0.0179

 *******************************************************************************

 VIBRATIONAL TEMPERATURES (K) [MODE NUMBER;IRREP]

 TO MODES
   197.9 [   4;Eu ]   197.9 [   5;Eu ]   202.9 [   6;Fu ]   202.9 [   7;Fu ]
   202.9 [   8;Fu ]   224.6 [   9;Au ]   298.6 [  10;Fu ]   298.6 [  11;Fu ]
   298.6 [  12;Fu ]   412.7 [  13;Fu ]   412.7 [  14;Fu ]   412.7 [  15;Fu ]
   449.5 [  16;Au ]   526.3 [  17;Fu ]   526.3 [  18;Fu ]   526.3 [  19;Fu ]
   567.8 [  20;Eu ]   567.8 [  21;Eu ]   610.7 [  22;Fg ]   610.7 [  23;Fg ]
   610.7 [  24;Fg ]   625.0 [  25;Eg ]   625.0 [  26;Eg ]   640.2 [  27;Fu ]
   640.2 [  28;Fu ]   640.2 [  29;Fu ]   710.2 [  30;Fg ]   710.2 [  31;Fg ]
   710.2 [  32;Fg ]  1402.8 [  33;Fg ]  1402.8 [  34;Fg ]  1402.8 [  35;Fg ]
  1404.8 [  36;Ag ]

 *******************************************************************************

 HARMONIC VIBRATIONAL CONTRIBUTIONS TO THERMODYNAMIC FUNCTIONS AT GIVEN
 TEMPERATURE AND PRESSURE:

 (EL = ELECTRONIC ENERGY
  E0 = ZERO-POINT ENERGY
  ET = THERMAL CONTRIBUTION TO THE VIBRATIONAL ENERGY
  PV = PRESSURE * VOLUME
  TS = TEMPERATURE * ENTROPY)

                          AU/CELL             EV/CELL                 KJ/MOL
 EL            :   -7717.913600475358 -210015.106030609400   -20263379.30242002
 E0            :       0.030516896253       0.830406964124          80.12209982


 *******************************************************************************

 THERMODYNAMIC FUNCTIONS WITH VIBRATIONAL CONTRIBUTIONS

 AT (T =  298.15 K, P =   0.10132500E+00 MPA):

                          AU/CELL             EV/CELL                 KJ/MOL
 ET            :       0.012031810748       0.327402215273          31.58951467
 PV            :       0.000002682175       0.000072985692           0.00704205
 TS            :       0.020484223055       0.557404047214          53.78132005
 ET+PV-TS      :      -0.008449730132      -0.229928846249         -22.18476334
 EL+E0+ET+PV-TS:   -7717.891533309237 -210014.505552491522   -20263321.36508353

 OTHER THERMODYNAMIC FUNCTIONS:

                      mHARTREE/(CELL*K)     mEV/(CELL*K)              J/(MOL*K)
 ENTROPY       :       0.068704420780       1.869542335112         180.38343134
 HEAT CAPACITY :       0.076266936026       2.075328836956         200.23881232

 *******************************************************************************
 TTTTTTTTTTTTTTTTTTTTTTTTTTTTTT END         TELAPSE     3957.29 TCPU     3918.40
 EEEEEEEEEE TERMINATION  DATE 05 09 2023 TIME 18:26:30.1
