         256 PROCESSORS WORKING

         
 *******************************************************************************
 *                                                                             *
 *                               CRYSTAL23                                     *
 *                      public : 1.0.1 - October 2022                          *
 *                       HTTP://WWW.CRYSTAL.UNITO.IT                           *
 *                                                                             *
 *                              MAIN AUTHORS                                   *
 *                                                                             *
 *  R. DOVESI(1,11), V.R. SAUNDERS(2), C. ROETTI(1,11), R. ORLANDO(1,11),      *
 *  C.M. ZICOVICH-WILSON(1,3), F. PASCALE(4), B. CIVALLERI(1,11),              *
 *  K. DOLL(5), N.M. HARRISON(6), I.J. BUSH(7), Ph. D'ARCO(8),                 *
 *  M. LLUNELL(9), M. CAUSA'(10), Y. NOEL(8), L. MASCHIO(1,11), A. ERBA(1,11)  *
 *  M. RE'RAT(14), S. CASASSA(1,11), B.G. SEARLE(2), J.K. DESMARAIS(1)         *
 *                                                                             *
 *        CONTRIBUTIONS TO THE CODE HAVE ALSO BEEN GIVEN BY                    *
 *                                                                             *
 *  M. FERRABONE(1,11), M. DE LA PIERRE(1,11), M. FERRERO(1,11),               *
 *  J. BAIMA(1,11), E. ALBANESE(1,11), M.F. PEINTINGER(12), R. BAST(13),       *
 *  B. KIRTMAN(15), V. LACIVITA(1,11), R. DEMICHELIS(1,16)                     *
 *  G. BRANDEBURG(17), S. SALUSTRO(1,11), G. SANSONE(1,11)                     *
 *  M.T. RUGGIERO(18), L.E. DAGA(1), L. DONA'(1), A. COSSARD(1)                *
 *                                                                             *
 * (1) THEORETICAL CHEMISTRY GROUP - UNIVERSITA' DI TORINO - TORINO (ITALY)    *
 * (2) SCIENTIFIC COMPUTING DEPARTMENT - STFC DARESBURY (UK)                   *
 * (3) UNIVERSIDAD AUTONOMA DEL ESTADO DE MORELOS - CUERNAVACA (MEXICO)        *
 * (4) UNIVERSITE' DE LORRAINE - NANCY (FRANCE)                                *
 * (5) UNIVERSITAET STUTTGART- STUTTGART (GERMANY)                             *
 * (6) IMPERIAL COLLEGE - LONDON (UK)                                          *
 * (7) SCIENTIFIC COMPUTING DEPARTMENT - STFC RAL (UK)                         *
 * (8) UPMC - SORBONNE UNIVERSITES - PARIS (FRANCE)                            *
 * (9) UNIVERSIDAD DE BARCELONA - BARCELONA (SPAIN)                            *
 *(10) UNIVERSITA' DI NAPOLI "FEDERICO II" - NAPOLI (ITALY)                    *
 *(11) NIS - NANOSTRUCTURED INTERFACES AND SURFACES - TORINO (ITALY)           *
 *(12) MPI FUER CHEMISCHE ENERGIEKONVERSION - MUELHEIM AN DER RUHR (GERMANY)   *
 *(13) UNIVERSITY OF TROMSO - TROMSO (NORWAY)                                  *
 *(14) UNIVERSITE' DE PAU ET DES PAYS DE L'ADOUR - PAU (FRANCE)                *
 *(15) UNIVERSITY OF CALIFORNIA SANTA BARBARA - SANTA BARBARA (USA)            *
 *(16) CURTIN UNIVERSITY - PERTH (AUSTRALIA)                                   *
 *(17) UNIVERSITY COLLEGE LONDON - LONDON (UK)                                 *
 *(18) UNIVERSITY OF VERMONT - BURLINGTON (USA)                                *
 *                                                                             *
 *******************************************************************************
 EEEEEEEEEE STARTING  DATE 25 07 2023 TIME 17:32:30.1
 ICSD_CollCode88710.cif                                                          

 CRYSTAL CALCULATION
 (INPUT ACCORDING TO THE INTERNATIONAL TABLES FOR X-RAY CRYSTALLOGRAPHY)
 CRYSTAL FAMILY                       :  ORTHORHOMBIC
 CRYSTAL CLASS  (GROTH - 1921)        :  ORTHORHOMBIC PYRAMIDAL               

 SPACE GROUP (NONCENTROSYMMETRIC)     :  P N A 21        

 LATTICE PARAMETERS  (ANGSTROMS AND DEGREES) - CONVENTIONAL CELL
        A           B           C        ALPHA        BETA       GAMMA
    10.43700     6.58920     6.54900    90.00000    90.00000    90.00000


 NUMBER OF IRREDUCIBLE ATOMS IN THE CONVENTIONAL CELL:    6

 INPUT COORDINATES

 ATOM AT. N.              COORDINATES
   1   3     5.780000000000E-01  4.548000000000E-01  3.881000000000E-01
   2  15     9.142800000000E-01  4.130200000000E-01  2.572900000000E-01
   3  15     5.923300000000E-01  9.017500000000E-01  2.428200000000E-01
   4  15     6.936300000000E-01  7.739000000000E-02  0.000000000000E+00
   5  15     6.911600000000E-01  5.674000000000E-02  4.996400000000E-01
   6  15     6.285800000000E-01  3.908500000000E-01  1.523000000000E-02

 *******************************************************************************

 << INFORMATION >>: FROM NOW ON, ALL COORDINATES REFER TO THE PRIMITIVE CELL

 *******************************************************************************

 LATTICE PARAMETERS  (ANGSTROMS AND DEGREES) - PRIMITIVE CELL
       A          B          C        ALPHA      BETA     GAMMA        VOLUME
   10.43700    6.58920    6.54900    90.00000  90.00000  90.00000    450.384425

 COORDINATES OF THE EQUIVALENT ATOMS (FRACTIONAL UNITS)

 N. ATOM EQUIV AT. N.          X                  Y                  Z

   1   1   1    3 LI   -4.22000000000E-01  4.54800000000E-01  3.88100000000E-01
   2   1   2    3 LI    4.22000000000E-01 -4.54800000000E-01 -1.11900000000E-01
   3   1   3    3 LI   -7.80000000000E-02 -4.52000000000E-02 -1.11900000000E-01
   4   1   4    3 LI    7.80000000000E-02  4.52000000000E-02  3.88100000000E-01

   5   2   1   15 P    -8.57200000000E-02  4.13020000000E-01  2.57290000000E-01
   6   2   2   15 P     8.57200000000E-02 -4.13020000000E-01 -2.42710000000E-01
   7   2   3   15 P    -4.14280000000E-01 -8.69800000000E-02 -2.42710000000E-01
   8   2   4   15 P     4.14280000000E-01  8.69800000000E-02  2.57290000000E-01

   9   3   1   15 P    -4.07670000000E-01 -9.82500000000E-02  2.42820000000E-01
  10   3   2   15 P     4.07670000000E-01  9.82500000000E-02 -2.57180000000E-01
  11   3   3   15 P    -9.23300000000E-02  4.01750000000E-01 -2.57180000000E-01
  12   3   4   15 P     9.23300000000E-02 -4.01750000000E-01  2.42820000000E-01

  13   4   1   15 P    -3.06370000000E-01  7.73900000000E-02  0.00000000000E+00
  14   4   2   15 P     3.06370000000E-01 -7.73900000000E-02 -5.00000000000E-01
  15   4   3   15 P    -1.93630000000E-01 -4.22610000000E-01 -5.00000000000E-01
  16   4   4   15 P     1.93630000000E-01  4.22610000000E-01  0.00000000000E+00

  17   5   1   15 P    -3.08840000000E-01  5.67400000000E-02  4.99640000000E-01
  18   5   2   15 P     3.08840000000E-01 -5.67400000000E-02 -3.60000000000E-04
  19   5   3   15 P    -1.91160000000E-01 -4.43260000000E-01 -3.60000000000E-04
  20   5   4   15 P     1.91160000000E-01  4.43260000000E-01  4.99640000000E-01

  21   6   1   15 P    -3.71420000000E-01  3.90850000000E-01  1.52300000000E-02
  22   6   2   15 P     3.71420000000E-01 -3.90850000000E-01 -4.84770000000E-01
  23   6   3   15 P    -1.28580000000E-01 -1.09150000000E-01 -4.84770000000E-01
  24   6   4   15 P     1.28580000000E-01  1.09150000000E-01  1.52300000000E-02

 NUMBER OF SYMMETRY OPERATORS         :    4
 *******************************************************************************
 * GEOMETRY EDITING - INPUT COORDINATES ARE GIVEN IN ANGSTROM         
 *******************************************************************************

 GEOMETRY NOW FULLY CONSISTENT WITH THE GROUP

 FRQFRQFRQFRQFRQFRQFRQFRQFRQFRQFRQFRQFRQFRQFRQFRQFRQFRQFRQFRQFRQFRQFRQFRQFRQFRQ

                       FREQUENCY CALCULATION

 OPTIMIZATION PERFORMED BEFORE FREQUENCIES CALCULATION
 *******************************************************************************
 INFORMATION **** NEW DEFAULT **** FINALRUN 4 FOR GEOMETRY OPTIMIZATIONS
 INFORMATION **** NEW DEFAULT **** OPTGEOM OPTIMIZES ATOMIC COORDINATES ONLY
 INFORMATION **** NEW DEFAULT **** TOL. ON ATOMIC DISP TO REDEFINE REF. GEOMETRY: 0.8 Angs
 INFORMATION **** NEW DEFAULT **** N POINTS TO REDEFINE REF. GEOMETRY: N OF OPT DEGS OF FREEDOM
 INFORMATION **** NEW DEFAULT **** TOL. ON ENERGY TO REDEFINE REF. GEOMETRY: 10**-3*(5*N. ATOMS)
 INFORMATION **** FULLOPTG **** FULL OPTIMIZATION (ATOMS AND CELL PARAMETERS)

 IMPORTANT INFORMATION:
 THE COORDINATE SYSTEM ADOPTED IN THE OPTIMIZATION IS NOT IN
 GENERAL HOMOGENEOUS UNITS. FOR THIS REASON THE GRADIENT AND 
 HESSIAN MATRIX IN TERMS OF THIS SYSTEM ARE GIVEN WITHOUT
 UNITS. FOR MORE DETAILS SEE THE MANUAL.

 *******************************************************************************
 COMBINED CELL/ATOM OPTIMIZATION CONTROL

 INITIAL TRUST RADIUS         0.50000 MAXIMUM TRUST RADIUS               0.50000
 MAXIMUM GRADIENT COMPONENT   0.00005 MAXIMUM DISPLACEMENT COMPONENT     0.00018
 R.M.S. OF GRADIENT COMPONENT 0.00003 R.M.S. OF DISPLACEMENT COMPONENTS  0.00012
 THRESHOLD ON ENERGY CHANGE 0.100E-06 EXTRAPOLATING POLYNOMIAL ORDER           2
 MAXIMUM ALLOWED NUMBER OF STEPS   -1 SORTING OF ENERGY POINTS:               NO
 ANALYTICAL  GRADIENT                 HESSIAN UPDATING                      BFGS
 STEP SIZE NUMERICAL GRADIENT 0.00100
 INITIAL HESSIAN MATRIX: SCHLEGEL MODEL 2
 *******************************************************************************

 INFORMATION **** INPFREQ **** IR INTENSITIES EVALUATED THROUGH CPHF APPROACH
 INFORMATION **** INPFREQ **** NEW DEFAULT - IMPOSING ECKART CONDITIONS TO THE HESSIAN

 GCALCO - MAX INDICES DIRECT LATTICE VECTOR    10    17    17
 NO.OF VECTORS CREATED 6999 STARS 1053 RMAX   171.65872 BOHR

 GEOMETRY FOR WAVE FUNCTION - DIMENSIONALITY OF THE SYSTEM    3
 (NON PERIODIC DIRECTION: LATTICE PARAMETER FORMALLY SET TO 500)
 *******************************************************************************
 LATTICE PARAMETERS (ANGSTROMS AND DEGREES) - BOHR = 0.5291772083 ANGSTROM
 PRIMITIVE CELL - CENTRING CODE 1/0 VOLUME=   450.384425 - DENSITY  2.387 g/cm^3
         A              B              C           ALPHA      BETA       GAMMA 
    10.43700000     6.58920000     6.54900000    90.000000  90.000000  90.000000
 *******************************************************************************
 ATOMS IN THE ASYMMETRIC UNIT    6 - ATOMS IN THE UNIT CELL:   24
     ATOM                 X/A                 Y/B                 Z/C    
 *******************************************************************************
      1 T   3 LI   -4.220000000000E-01  4.548000000000E-01  3.881000000000E-01
      2 F   3 LI    4.220000000000E-01 -4.548000000000E-01 -1.119000000000E-01
      3 F   3 LI   -7.800000000000E-02 -4.520000000000E-02 -1.119000000000E-01
      4 F   3 LI    7.800000000000E-02  4.520000000000E-02  3.881000000000E-01
      5 T  15 P    -8.572000000000E-02  4.130200000000E-01  2.572900000000E-01
      6 F  15 P     8.572000000000E-02 -4.130200000000E-01 -2.427100000000E-01
      7 F  15 P    -4.142800000000E-01 -8.698000000000E-02 -2.427100000000E-01
      8 F  15 P     4.142800000000E-01  8.698000000000E-02  2.572900000000E-01
      9 T  15 P    -4.076700000000E-01 -9.825000000000E-02  2.428200000000E-01
     10 F  15 P     4.076700000000E-01  9.825000000000E-02 -2.571800000000E-01
     11 F  15 P    -9.233000000000E-02  4.017500000000E-01 -2.571800000000E-01
     12 F  15 P     9.233000000000E-02 -4.017500000000E-01  2.428200000000E-01
     13 T  15 P    -3.063700000000E-01  7.739000000000E-02  0.000000000000E+00
     14 F  15 P     3.063700000000E-01 -7.739000000000E-02 -5.000000000000E-01
     15 F  15 P    -1.936300000000E-01 -4.226100000000E-01 -5.000000000000E-01
     16 F  15 P     1.936300000000E-01  4.226100000000E-01  0.000000000000E+00
     17 T  15 P    -3.088400000000E-01  5.674000000000E-02  4.996400000000E-01
     18 F  15 P     3.088400000000E-01 -5.674000000000E-02 -3.600000000000E-04
     19 F  15 P    -1.911600000000E-01 -4.432600000000E-01 -3.600000000000E-04
     20 F  15 P     1.911600000000E-01  4.432600000000E-01  4.996400000000E-01
     21 T  15 P    -3.714200000000E-01  3.908500000000E-01  1.523000000000E-02
     22 F  15 P     3.714200000000E-01 -3.908500000000E-01 -4.847700000000E-01
     23 F  15 P    -1.285800000000E-01 -1.091500000000E-01 -4.847700000000E-01
     24 F  15 P     1.285800000000E-01  1.091500000000E-01  1.523000000000E-02

 T = ATOM BELONGING TO THE ASYMMETRIC UNIT

 ****    4 SYMMOPS - TRANSLATORS IN FRACTIONAL UNITS
 **** MATRICES AND TRANSLATORS IN THE CRYSTALLOGRAPHIC REFERENCE FRAME
   V INV                    ROTATION MATRICES                   TRANSLATORS
   1   1  1.00  0.00  0.00  0.00  1.00  0.00  0.00  0.00  1.00  0.00  0.00  0.00
   2   2 -1.00  0.00  0.00  0.00 -1.00  0.00  0.00  0.00  1.00  0.00  0.00  0.50
   3   3 -1.00  0.00  0.00  0.00  1.00  0.00  0.00  0.00  1.00  0.50  0.50  0.50
   4   4  1.00  0.00  0.00  0.00 -1.00  0.00  0.00  0.00  1.00  0.50  0.50  0.00

 DIRECT LATTICE VECTORS CARTESIAN COMPONENTS (ANGSTROM)
          X                    Y                    Z
   0.104370000000E+02   0.000000000000E+00   0.000000000000E+00
   0.000000000000E+00   0.658920000000E+01   0.000000000000E+00
   0.000000000000E+00   0.000000000000E+00   0.654900000000E+01


 CARTESIAN COORDINATES - PRIMITIVE CELL
 *******************************************************************************
 *      ATOM          X(ANGSTROM)         Y(ANGSTROM)         Z(ANGSTROM)
 *******************************************************************************
    1     3 LI   -4.404414000000E+00  2.996768160000E+00  2.541666900000E+00
    2     3 LI    4.404414000000E+00 -2.996768160000E+00 -7.328331000000E-01
    3     3 LI   -8.140860000000E-01 -2.978318400000E-01 -7.328331000000E-01
    4     3 LI    8.140860000000E-01  2.978318400000E-01  2.541666900000E+00
    5    15 P    -8.946596400000E-01  2.721471384000E+00  1.684992210000E+00
    6    15 P     8.946596400000E-01 -2.721471384000E+00 -1.589507790000E+00
    7    15 P    -4.323840360000E+00 -5.731286160000E-01 -1.589507790000E+00
    8    15 P     4.323840360000E+00  5.731286160000E-01  1.684992210000E+00
    9    15 P    -4.254851790000E+00 -6.473889000000E-01  1.590228180000E+00
   10    15 P     4.254851790000E+00  6.473889000000E-01 -1.684271820000E+00
   11    15 P    -9.636482100000E-01  2.647211100000E+00 -1.684271820000E+00
   12    15 P     9.636482100000E-01 -2.647211100000E+00  1.590228180000E+00
   13    15 P    -3.197583690000E+00  5.099381880000E-01  0.000000000000E+00
   14    15 P     3.197583690000E+00 -5.099381880000E-01  3.274500000000E+00
   15    15 P    -2.020916310000E+00 -2.784661812000E+00  3.274500000000E+00
   16    15 P     2.020916310000E+00  2.784661812000E+00  0.000000000000E+00
   17    15 P    -3.223363080000E+00  3.738712080000E-01  3.272142360000E+00
   18    15 P     3.223363080000E+00 -3.738712080000E-01 -2.357640000000E-03
   19    15 P    -1.995136920000E+00 -2.920728792000E+00 -2.357640000000E-03
   20    15 P     1.995136920000E+00  2.920728792000E+00  3.272142360000E+00
   21    15 P    -3.876510540000E+00  2.575388820000E+00  9.974127000000E-02
   22    15 P     3.876510540000E+00 -2.575388820000E+00 -3.174758730000E+00
   23    15 P    -1.341989460000E+00 -7.192111800000E-01 -3.174758730000E+00
   24    15 P     1.341989460000E+00  7.192111800000E-01  9.974127000000E-02

 *******************************************************************************
 LOCAL ATOMIC FUNCTIONS BASIS SET
 *******************************************************************************
   ATOM   X(AU)   Y(AU)   Z(AU)  N. TYPE  EXPONENT  S COEF   P COEF   D/F/G COEF
 *******************************************************************************
   1 LI  -8.323   5.663   4.803
                                  1 S  
                                         6.269E+03 2.054E-04 0.000E+00 0.000E+00
                                         9.403E+02 1.592E-03 0.000E+00 0.000E+00
                                         2.142E+02 8.287E-03 0.000E+00 0.000E+00
                                         6.076E+01 3.386E-02 0.000E+00 0.000E+00
                                         1.992E+01 1.110E-01 0.000E+00 0.000E+00
                                         7.317E+00 2.745E-01 0.000E+00 0.000E+00
                                  2 S  
                                         2.972E+00 2.379E-01 0.000E+00 0.000E+00
                                         1.264E+00 3.077E-01 0.000E+00 0.000E+00
                                  3 S  
                                         5.026E-01 1.000E+00 0.000E+00 0.000E+00
                                  4 S  
                                         1.201E-01 1.000E+00 0.000E+00 0.000E+00
                           5-     7 P  
                                         1.320E-01 0.000E+00 1.000E+00 0.000E+00
   2 LI   8.323  -5.663  -1.385
   3 LI  -1.538  -0.563  -1.385
   4 LI   1.538   0.563   4.803
   5 P   -1.691   5.143   3.184
                                 29 S  
                                         5.243E+04 5.521E-04 0.000E+00 0.000E+00
                                         7.863E+03 4.268E-03 0.000E+00 0.000E+00
                                         1.790E+03 2.193E-02 0.000E+00 0.000E+00
                                         5.063E+02 8.567E-02 0.000E+00 0.000E+00
                                         1.646E+02 2.484E-01 0.000E+00 0.000E+00
                                         5.839E+01 4.634E-01 0.000E+00 0.000E+00
                                         2.164E+01 3.535E-01 0.000E+00 0.000E+00
                                 30 S  
                                         9.901E+01 2.190E-02 0.000E+00 0.000E+00
                                         3.055E+01 9.565E-02 0.000E+00 0.000E+00
                                         5.454E+00-2.945E-01 0.000E+00 0.000E+00
                                 31 S  
                                         2.650E+00 1.329E+00 0.000E+00 0.000E+00
                                         1.273E+00 6.611E-01 0.000E+00 0.000E+00
                                 32 S  
                                         3.072E-01 1.000E+00 0.000E+00 0.000E+00
                                 33 S  
                                         1.203E-01 1.000E+00 0.000E+00 0.000E+00
                          34-    36 P  
                                         4.723E+02 0.000E+00 2.571E-03 0.000E+00
                                         1.116E+02 0.000E+00 2.025E-02 0.000E+00
                                         3.545E+01 0.000E+00 9.158E-02 0.000E+00
                                         1.299E+01 0.000E+00 2.575E-01 0.000E+00
                                         5.049E+00 0.000E+00 4.286E-01 0.000E+00
                          37-    39 P  
                                         1.889E+00 0.000E+00 1.000E+00 0.000E+00
                          40-    42 P  
                                         4.424E-01 0.000E+00 1.000E+00 0.000E+00
                          43-    45 P  
                                         1.573E-01 0.000E+00 1.000E+00 0.000E+00
                          46-    50 D  
                                         5.061E-01 0.000E+00 0.000E+00 1.000E+00
   6 P    1.691  -5.143  -3.004
   7 P   -8.171  -1.083  -3.004
   8 P    8.171   1.083   3.184
   9 P   -8.041  -1.223   3.005
  10 P    8.041   1.223  -3.183
  11 P   -1.821   5.003  -3.183
  12 P    1.821  -5.003   3.005
  13 P   -6.043   0.964   0.000
  14 P    6.043  -0.964   6.188
  15 P   -3.819  -5.262   6.188
  16 P    3.819   5.262   0.000
  17 P   -6.091   0.707   6.183
  18 P    6.091  -0.707  -0.004
  19 P   -3.770  -5.519  -0.004
  20 P    3.770   5.519   6.183
  21 P   -7.326   4.867   0.188
  22 P    7.326  -4.867  -5.999
  23 P   -2.536  -1.359  -5.999
  24 P    2.536   1.359   0.188
 INFORMATION **** SET_MPP **** PCRYSTAL CALCULATION
 INFORMATION **** READM2 **** NEW DEFAULT: FOCK/KS MATRIX MIXING SET TO 30 %
 INFORMATION **** READM2 **** NEW DEFAULT: FULL DIRECT SCF MODE
 INFORMATION **** READM2 **** NEW DEFAULT: COULOMB BIPOLAR BUFFER SET TO 32 Mb
 INFORMATION **** READM2 **** NEW DEFAULT: EXCHANGE BIPOLAR BUFFER SET TO 32 Mb

 *******************************************************************************
 NEW DEFAULT: DFT INTEGRATION GRID INCREASED TO XLGRID
 NEW DEFAULT: DIIS ACCELERATOR ACTIVE
 USE KEYWORD NODIIS TO TURN IT OFF
 *******************************************************************************

 INFORMATION **** RDDFTP **** MAX N. OF POINTS ALLOWED IN A BATCH FOR NUMERICAL INTEGRATION         200
 INFORMATION **** TOLINTEG **** COULOMB AND EXCHANGE SERIES TOLERANCES MODIFIED
 INFORMATION **** TOLDEE **** SCF TOL ON TOTAL ENERGY SET TO          11
 INFORMATION **** EXCHSIZE **** EXCHANGE BIPOLAR BUFFER SIZE SET TO    12012489
 INFORMATION **** MAXCYCLE **** MAX NUMBER OF SCF CYCLES SET TO         150
 *******************************************************************************
 N. OF ATOMS PER CELL        24  COULOMB OVERLAP TOL         (T1) 10**   -7
 NUMBER OF SHELLS           220  COULOMB PENETRATION TOL     (T2) 10**   -7
 NUMBER OF AO               468  EXCHANGE OVERLAP TOL        (T3) 10**   -7
 N. OF ELECTRONS PER CELL   312  EXCHANGE PSEUDO OVP (F(G))  (T4) 10**   -9
 CORE ELECTRONS PER CELL    208  EXCHANGE PSEUDO OVP (P(G))  (T5) 10**  -30
 N. OF SYMMETRY OPERATORS     4  POLE ORDER IN MONO ZONE                  4
 *******************************************************************************
 TYPE OF CALCULATION :  RESTRICTED CLOSED SHELL
 KOHN-SHAM HAMILTONIAN

 (EXCHANGE)[CORRELATION] FUNCTIONAL:(PERDEW-BURKE-ERNZERHOF)[PERDEW-BURKE-ERNZERHOF]


 HYBRID EXCHANGE - PERCENTAGE OF FOCK EXCHANGE    25.0000

 CAPPA:IS1  8;IS2  8;IS3  8; K PTS MONK NET 125; SYMMOPS:K SPACE   8;G SPACE   4

 *******************************************************************************
 MAX NUMBER OF SCF CYCLES     150  CONVERGENCE ON DELTAP        10**-21
 WEIGHT OF F(I) IN F(I+1)      30% CONVERGENCE ON ENERGY        10**-11
 SHRINK. FACT.(MONKH.)    8  8  8  NUMBER OF K POINTS IN THE IBZ    125
 SHRINKING FACTOR(GILAT NET)    8  NUMBER OF K POINTS(GILAT NET)    125
 *******************************************************************************
 *** K POINTS COORDINATES (OBLIQUE COORDINATES IN UNITS OF IS =  8)
   1-R(  0  0  0)   2-C(  1  0  0)   3-C(  2  0  0)   4-C(  3  0  0)
   5-R(  4  0  0)   6-C(  0  1  0)   7-C(  1  1  0)   8-C(  2  1  0)
   9-C(  3  1  0)  10-C(  4  1  0)  11-C(  0  2  0)  12-C(  1  2  0)
  13-C(  2  2  0)  14-C(  3  2  0)  15-C(  4  2  0)  16-C(  0  3  0)
  17-C(  1  3  0)  18-C(  2  3  0)  19-C(  3  3  0)  20-C(  4  3  0)
  21-R(  0  4  0)  22-C(  1  4  0)  23-C(  2  4  0)  24-C(  3  4  0)
  25-R(  4  4  0)  26-C(  0  0  1)  27-C(  1  0  1)  28-C(  2  0  1)
  29-C(  3  0  1)  30-C(  4  0  1)  31-C(  0  1  1)  32-C(  1  1  1)
  33-C(  2  1  1)  34-C(  3  1  1)  35-C(  4  1  1)  36-C(  0  2  1)
  37-C(  1  2  1)  38-C(  2  2  1)  39-C(  3  2  1)  40-C(  4  2  1)
  41-C(  0  3  1)  42-C(  1  3  1)  43-C(  2  3  1)  44-C(  3  3  1)
  45-C(  4  3  1)  46-C(  0  4  1)  47-C(  1  4  1)  48-C(  2  4  1)
  49-C(  3  4  1)  50-C(  4  4  1)  51-C(  0  0  2)  52-C(  1  0  2)
  53-C(  2  0  2)  54-C(  3  0  2)  55-C(  4  0  2)  56-C(  0  1  2)
  57-C(  1  1  2)  58-C(  2  1  2)  59-C(  3  1  2)  60-C(  4  1  2)
  61-C(  0  2  2)  62-C(  1  2  2)  63-C(  2  2  2)  64-C(  3  2  2)
  65-C(  4  2  2)  66-C(  0  3  2)  67-C(  1  3  2)  68-C(  2  3  2)
  69-C(  3  3  2)  70-C(  4  3  2)  71-C(  0  4  2)  72-C(  1  4  2)
  73-C(  2  4  2)  74-C(  3  4  2)  75-C(  4  4  2)  76-C(  0  0  3)
  77-C(  1  0  3)  78-C(  2  0  3)  79-C(  3  0  3)  80-C(  4  0  3)
  81-C(  0  1  3)  82-C(  1  1  3)  83-C(  2  1  3)  84-C(  3  1  3)
  85-C(  4  1  3)  86-C(  0  2  3)  87-C(  1  2  3)  88-C(  2  2  3)
  89-C(  3  2  3)  90-C(  4  2  3)  91-C(  0  3  3)  92-C(  1  3  3)
  93-C(  2  3  3)  94-C(  3  3  3)  95-C(  4  3  3)  96-C(  0  4  3)
  97-C(  1  4  3)  98-C(  2  4  3)  99-C(  3  4  3) 100-C(  4  4  3)
 101-R(  0  0  4) 102-C(  1  0  4) 103-C(  2  0  4) 104-C(  3  0  4)
 105-R(  4  0  4) 106-C(  0  1  4) 107-C(  1  1  4) 108-C(  2  1  4)
 109-C(  3  1  4) 110-C(  4  1  4) 111-C(  0  2  4) 112-C(  1  2  4)
 113-C(  2  2  4) 114-C(  3  2  4) 115-C(  4  2  4) 116-C(  0  3  4)
 117-C(  1  3  4) 118-C(  2  3  4) 119-C(  3  3  4) 120-C(  4  3  4)
 121-R(  0  4  4) 122-C(  1  4  4) 123-C(  2  4  4) 124-C(  3  4  4)
 125-R(  4  4  4)

 DIRECT LATTICE VECTORS COMPON. (A.U.)     RECIP. LATTICE VECTORS COMPON. (A.U.) 
        X            Y            Z              X            Y            Z
   19.7230717    0.0000000    0.0000000      0.3185703    0.0000000    0.0000000
    0.0000000   12.4517834    0.0000000      0.0000000    0.5046012    0.0000000
    0.0000000    0.0000000   12.3758165      0.0000000    0.0000000    0.5076987

 DISK SPACE FOR EIGENVECTORS (FTN 10)    53003808 REALS

 SYMMETRY ADAPTION OF THE BLOCH FUNCTIONS ENABLED
 TTTTTTTTTTTTTTTTTTTTTTTTTTTTTT gordsh1     TELAPSE        4.53 TCPU        1.80

 MATRIX SIZE: P(G) 2219132, F(G)  177088, P(G) IRR  284484, F(G) IRR   45187
 MAX G-VECTOR INDEX FOR 1- AND 2-ELECTRON INTEGRALS 201

 TTTTTTTTTTTTTTTTTTTTTTTTTTTTTT INPUT       TELAPSE        4.53 TCPU        1.81

 NEIGHBORS OF THE NON-EQUIVALENT ATOMS

 N = NUMBER OF NEIGHBORS AT DISTANCE R
    ATOM  N     R/ANG      R/AU   NEIGHBORS (ATOM LABELS AND CELL INDICES)
   1 LI   1     2.5251     4.7718   22 P   -1 1 1
   1 LI   1     2.5336     4.7879   21 P    0 0 0
   1 LI   1     2.6212     4.9533   15 P    0 1 0
   1 LI   1     2.9678     5.6084   17 P    0 0 0
   1 LI   1     3.0867     5.8330    8 P   -1 0 0
   1 LI   1     3.0985     5.8554    9 P    0 1 0

   5 P    1     2.2253     4.2052   12 P    0 1 0
   5 P    1     2.2260     4.2065   19 P    0 1 0
   5 P    1     2.2289     4.2120   15 P    0 1 0
   5 P    1     3.0867     5.8330    4 LI   0 0 0
   5 P    1     3.1814     6.0119   11 P    0 0 1
   5 P    1     3.3030     6.2417   20 P    0 0 0

   9 P    1     2.2217     4.1983   17 P    0 0 0
   9 P    1     2.2253     4.2052    8 P   -1 0 0
   9 P    1     2.2329     4.2197   13 P    0 0 0
   9 P    1     3.0985     5.8554    1 LI   0-1 0
   9 P    1     3.1814     6.0119    7 P    0 0 0
   9 P    1     3.3708     6.3699    7 P    0 0 1

  13 P    1     2.1765     4.1129   21 P    0 0 0
  13 P    1     2.2289     4.2120    7 P    0 0 0
  13 P    1     2.2329     4.2197    9 P    0 0 0
  13 P    1     2.6212     4.9533    3 LI   0 0 0
  13 P    1     3.2751     6.1890   17 P    0 0 0
  13 P    1     3.2798     6.1979   17 P    0 0-1

  17 P    1     2.1783     4.1163   23 P    0 0 1
  17 P    1     2.2217     4.1983    9 P    0 0 0
  17 P    1     2.2260     4.2065    7 P    0 0 1
  17 P    1     2.9678     5.6084    1 LI   0 0 0
  17 P    1     3.2751     6.1890   13 P    0 0 0
  17 P    1     3.2798     6.1979   13 P    0 0 1

  21 P    1     2.1765     4.1129   13 P    0 0 0
  21 P    1     2.1783     4.1163   19 P    0 1 0
  21 P    1     2.5251     4.7718    2 LI  -1 1 0
  21 P    1     2.5336     4.7879    1 LI   0 0 0
  21 P    1     3.3802     6.3877    5 P    0 0 0
  21 P    1     3.3948     6.4152    8 P   -1 0 0


 SYMMETRY ALLOWED ELASTIC DISTORTION 1
  0.5773503  0.0000000  0.0000000
  0.0000000  0.5773503  0.0000000
  0.0000000  0.0000000  0.5773503

 SYMMETRY ALLOWED ELASTIC DISTORTION 2
  0.8164966  0.0000000  0.0000000
  0.0000000 -0.4082483  0.0000000
  0.0000000  0.0000000 -0.4082483

 SYMMETRY ALLOWED ELASTIC DISTORTION 3
  0.0000000  0.0000000  0.0000000
  0.0000000  0.7071068  0.0000000
  0.0000000  0.0000000 -0.7071068

 SYMMETRY ALLOWED INTERNAL DEGREE(S) OF FREEDOM:  17
 TTTTTTTTTTTTTTTTTTTTTTTTTTTTTT SYMM        TELAPSE        4.60 TCPU        1.88
 TTTTTTTTTTTTTTTTTTTTTTTTTTTTTT INT_SCREEN  TELAPSE        4.62 TCPU        1.89

 *******************************************************************************
 *                             OPTIMIZATION STARTS                             *
 *******************************************************************************
 RECLASIFICATION OF INDICES FOR INTEGRAL CALC ACCORDING TO DIFFERENT CRITERIA:
           FIXDELTE                  FIXDELTX              FIXDELTN
          0.10000000               0.80000000                 20
 *******************************************************************************

 *******************************************************************************
 COORDINATE AND CELL OPTIMIZATION - POINT    1

 DFT PARAMETERS

     ATOM       ELECTRONS   NET CHARGE   R(ANGSTROM)
   1   3  LI      3.0000      0.0000     1.57000000
   5  15  P      15.0000      0.0000     1.10000000

 SIZE OF GRID=     295781
 TTTTTTTTTTTTTTTTTTTTTTTTTTTTTT MAKE_GRID2  TELAPSE        9.63 TCPU        6.88
 BECKE WEIGHT FUNCTION
 RADSAFE =     2.00
 TOLERANCES - DENSITY:10**- 6; POTENTIAL:10**- 9; GRID WGT:10**-14

 RADIAL INTEGRATION  - INTERVALS (POINTS,UPPER LIMIT):            1( 99,  4.0*R)

 ANGULAR INTEGRATION - INTERVALS (ACCURACY LEVEL [N. POINTS] UPPER LIMIT):
  1(  6[ 146]   0.2)  2( 11[ 302]   0.5)  3( 14[ 590]   0.9)  4( 18[1454]   3.5)
  5( 14[ 590]9999.0)
 TTTTTTTTTTTTTTTTTTTTTTTTTTTTTT INT_CALC    TELAPSE        9.65 TCPU        6.90

 *******************************************************************************
 ICSD_CollCode88710.cif                                                          
 CRYSTAL - SCF - TYPE OF CALCULATION :  RESTRICTED CLOSED SHELL
 *******************************************************************************

 CAPPA:IS1  8;IS2  8;IS3  8; K PTS MONK NET 125; SYMMOPS:K SPACE   8;G SPACE   4

 TTTTTTTTTTTTTTTTTTTTTTTTTTTTTT SDIK        TELAPSE       12.26 TCPU        9.50

 AAAAAAAAAAAAAAAAAAAAAAAAAAAAAAAAAAAAAAAAAAAAAAAAAAAAAAAAAAAAAAAAAAAAAAAAAAAAAAA
         ATOMIC WAVEFUNCTION(S)


 NUCLEAR CHARGE  3.0  SYMMETRY SPECIES            S
 N. ELECTRONS    3.0  NUMBER OF PRIMITIVE GTOS   10
                      NUMBER OF CONTRACTED GTOS   4
                      NUMBER OF CLOSED SHELLS     1
                      OPEN SHELL OCCUPATION       1

  ZNUC  SCFIT    TOTAL HF ENERGY   KINETIC ENERGY   VIRIAL THEOREM             ACCURACY
   3.0     6    -7.379265796E+00  7.680406116E+00 -1.960791094E+00  2.4E-06

 NUCLEAR CHARGE 15.0  SYMMETRY SPECIES            S    P
 N. ELECTRONS   15.0  NUMBER OF PRIMITIVE GTOS   14    8
                      NUMBER OF CONTRACTED GTOS   5    4
                      NUMBER OF CLOSED SHELLS     3    1
                      OPEN SHELL OCCUPATION       0    3

  ZNUC  SCFIT    TOTAL HF ENERGY   KINETIC ENERGY   VIRIAL THEOREM             ACCURACY
  15.0    12    -3.406923858E+02  3.409761491E+02 -1.999167791E+00  1.2E-06

 AAAAAAAAAAAAAAAAAAAAAAAAAAAAAAAAAAAAAAAAAAAAAAAAAAAAAAAAAAAAAAAAAAAAAAAAAAAAAAA

 TTTTTTTTTTTTTTTTTTTTTTTTTTTTTT MOQGAD      TELAPSE       12.27 TCPU        9.51
 TTTTTTTTTTTTTTTTTTTTTTTTTTTTTT SHELLXN     TELAPSE       16.32 TCPU       13.54
 TTTTTTTTTTTTTTTTTTTTTTTTTTTTTT MONMO3      TELAPSE       16.35 TCPU       13.56
 NUMERICALLY INTEGRATED DENSITY    312.0000018502
 TTTTTTTTTTTTTTTTTTTTTTTTTTTTTT NUMDFT      TELAPSE       16.56 TCPU       13.77
 CYC   0 ETOT(AU) -6.857944068996E+03 DETOT -6.86E+03 tst  0.00E+00 PX  1.00E+00
 TTTTTTTTTTTTTTTTTTTTTTTTTTTTTT DIIS        TELAPSE       16.58 TCPU       13.79
 TTTTTTTTTTTTTTTTTTTTTTTTTTTTTT FDIK        TELAPSE       16.80 TCPU       14.00
 INSULATING STATE
 TOP OF VALENCE BANDS -    BAND    156; K   18; EIG -1.7719958E-01 AU
 TOP OF VALENCE BANDS -    BAND    156; K    1; EIG -1.8554067E-01 AU
 BOTTOM OF VIRTUAL BANDS - BAND    157; K   17; EIG -1.0298038E-01 AU
 INDIRECT ENERGY BAND GAP:   2.0196 eV
 BOTTOM OF VIRTUAL BANDS - BAND    157; K    1; EIG -8.5042417E-02 AU
 TTTTTTTTTTTTTTTTTTTTTTTTTTTTTT PDIG        TELAPSE       16.94 TCPU       14.15
 TTTTTTTTTTTTTTTTTTTTTTTTTTTTTT MOQGAD      TELAPSE       16.95 TCPU       14.15
 TTTTTTTTTTTTTTTTTTTTTTTTTTTTTT SHELLXN     TELAPSE       21.11 TCPU       18.29
 TTTTTTTTTTTTTTTTTTTTTTTTTTTTTT MONMO3      TELAPSE       21.14 TCPU       18.31
 NUMERICALLY INTEGRATED DENSITY    311.9999923588
 TTTTTTTTTTTTTTTTTTTTTTTTTTTTTT NUMDFT      TELAPSE       21.48 TCPU       18.66
 CYC   1 ETOT(AU) -6.855135934324E+03 DETOT  2.81E+00 tst  0.00E+00 PX  1.00E+00
 TTTTTTTTTTTTTTTTTTTTTTTTTTTTTT DIIS        TELAPSE       21.50 TCPU       18.67
 DIIS TEST: 0.14287E+00 AT SCF   CYCLE   1 - MIX   30 %
 TTTTTTTTTTTTTTTTTTTTTTTTTTTTTT FDIK        TELAPSE       21.71 TCPU       18.89
 INSULATING STATE
 TOP OF VALENCE BANDS -    BAND    156; K   18; EIG -1.6262692E-01 AU
 TOP OF VALENCE BANDS -    BAND    156; K    1; EIG -1.8626016E-01 AU
 BOTTOM OF VIRTUAL BANDS - BAND    157; K   17; EIG -9.0553950E-02 AU
 INDIRECT ENERGY BAND GAP:   1.9612 eV
 BOTTOM OF VIRTUAL BANDS - BAND    157; K    1; EIG -7.3063689E-02 AU
 TTTTTTTTTTTTTTTTTTTTTTTTTTTTTT PDIG        TELAPSE       21.86 TCPU       19.03
 TTTTTTTTTTTTTTTTTTTTTTTTTTTTTT MOQGAD      TELAPSE       21.86 TCPU       19.03
 TTTTTTTTTTTTTTTTTTTTTTTTTTTTTT SHELLXN     TELAPSE       26.05 TCPU       23.19
 TTTTTTTTTTTTTTTTTTTTTTTTTTTTTT MONMO3      TELAPSE       26.07 TCPU       23.22
 NUMERICALLY INTEGRATED DENSITY    311.9999933874
 TTTTTTTTTTTTTTTTTTTTTTTTTTTTTT NUMDFT      TELAPSE       26.28 TCPU       23.42
 CYC   2 ETOT(AU) -6.855162346695E+03 DETOT -2.64E-02 tst  7.56E-04 PX  1.25E-01
 TTTTTTTTTTTTTTTTTTTTTTTTTTTTTT DIIS        TELAPSE       26.29 TCPU       23.43
 DIIS TEST: 0.74785E-01 AT SCF   CYCLE   2 - DIIS ACTIVE - HISTORY:     2 CYCLES
 TTTTTTTTTTTTTTTTTTTTTTTTTTTTTT FDIK        TELAPSE       26.51 TCPU       23.64
 INSULATING STATE
 TOP OF VALENCE BANDS -    BAND    156; K   18; EIG -1.7135016E-01 AU
 TOP OF VALENCE BANDS -    BAND    156; K    1; EIG -1.8483407E-01 AU
 BOTTOM OF VIRTUAL BANDS - BAND    157; K   17; EIG -7.3838147E-02 AU
 INDIRECT ENERGY BAND GAP:   2.6534 eV
 BOTTOM OF VIRTUAL BANDS - BAND    157; K    1; EIG -5.3002222E-02 AU
 TTTTTTTTTTTTTTTTTTTTTTTTTTTTTT PDIG        TELAPSE       26.65 TCPU       23.79
 TTTTTTTTTTTTTTTTTTTTTTTTTTTTTT MOQGAD      TELAPSE       26.65 TCPU       23.79
 TTTTTTTTTTTTTTTTTTTTTTTTTTTTTT SHELLXN     TELAPSE       30.84 TCPU       27.95
 TTTTTTTTTTTTTTTTTTTTTTTTTTTTTT MONMO3      TELAPSE       30.86 TCPU       27.97
 NUMERICALLY INTEGRATED DENSITY    311.9999927871
 TTTTTTTTTTTTTTTTTTTTTTTTTTTTTT NUMDFT      TELAPSE       31.09 TCPU       28.20
 CYC   3 ETOT(AU) -6.855190959180E+03 DETOT -2.86E-02 tst  5.05E-04 PX  5.55E-02
 TTTTTTTTTTTTTTTTTTTTTTTTTTTTTT DIIS        TELAPSE       31.10 TCPU       28.21
 DIIS TEST: 0.51574E-02 AT SCF   CYCLE   3 - DIIS ACTIVE - HISTORY:     3 CYCLES
 TTTTTTTTTTTTTTTTTTTTTTTTTTTTTT FDIK        TELAPSE       31.32 TCPU       28.43
 INSULATING STATE
 TOP OF VALENCE BANDS -    BAND    156; K   18; EIG -1.7072806E-01 AU
 TOP OF VALENCE BANDS -    BAND    156; K    1; EIG -1.8630191E-01 AU
 BOTTOM OF VIRTUAL BANDS - BAND    157; K   17; EIG -7.3509542E-02 AU
 INDIRECT ENERGY BAND GAP:   2.6455 eV
 BOTTOM OF VIRTUAL BANDS - BAND    157; K    1; EIG -5.2053539E-02 AU
 TTTTTTTTTTTTTTTTTTTTTTTTTTTTTT PDIG        TELAPSE       31.47 TCPU       28.57
 TTTTTTTTTTTTTTTTTTTTTTTTTTTTTT MOQGAD      TELAPSE       31.47 TCPU       28.58
 TTTTTTTTTTTTTTTTTTTTTTTTTTTTTT SHELLXN     TELAPSE       35.65 TCPU       32.73
 TTTTTTTTTTTTTTTTTTTTTTTTTTTTTT MONMO3      TELAPSE       35.68 TCPU       32.75
 NUMERICALLY INTEGRATED DENSITY    311.9999928320
 TTTTTTTTTTTTTTTTTTTTTTTTTTTTTT NUMDFT      TELAPSE       35.88 TCPU       32.95
 CYC   4 ETOT(AU) -6.855192182185E+03 DETOT -1.22E-03 tst  2.52E-05 PX  1.21E-02
 TTTTTTTTTTTTTTTTTTTTTTTTTTTTTT DIIS        TELAPSE       35.89 TCPU       32.97
 DIIS TEST: 0.14195E-02 AT SCF   CYCLE   4 - DIIS ACTIVE - HISTORY:     4 CYCLES
 TTTTTTTTTTTTTTTTTTTTTTTTTTTTTT FDIK        TELAPSE       36.11 TCPU       33.18
 INSULATING STATE
 TOP OF VALENCE BANDS -    BAND    156; K   18; EIG -1.7035986E-01 AU
 TOP OF VALENCE BANDS -    BAND    156; K    1; EIG -1.8609295E-01 AU
 BOTTOM OF VIRTUAL BANDS - BAND    157; K   17; EIG -7.3617033E-02 AU
 INDIRECT ENERGY BAND GAP:   2.6325 eV
 BOTTOM OF VIRTUAL BANDS - BAND    157; K    1; EIG -5.2453316E-02 AU
 TTTTTTTTTTTTTTTTTTTTTTTTTTTTTT PDIG        TELAPSE       36.25 TCPU       33.33
 TTTTTTTTTTTTTTTTTTTTTTTTTTTTTT MOQGAD      TELAPSE       36.26 TCPU       33.33
 TTTTTTTTTTTTTTTTTTTTTTTTTTTTTT SHELLXN     TELAPSE       40.44 TCPU       37.48
 TTTTTTTTTTTTTTTTTTTTTTTTTTTTTT MONMO3      TELAPSE       40.46 TCPU       37.51
 NUMERICALLY INTEGRATED DENSITY    311.9999928488
 TTTTTTTTTTTTTTTTTTTTTTTTTTTTTT NUMDFT      TELAPSE       40.67 TCPU       37.71
 CYC   5 ETOT(AU) -6.855192697587E+03 DETOT -5.15E-04 tst  3.60E-06 PX  5.25E-03
 TTTTTTTTTTTTTTTTTTTTTTTTTTTTTT DIIS        TELAPSE       40.68 TCPU       37.73
 DIIS TEST: 0.36356E-04 AT SCF   CYCLE   5 - DIIS ACTIVE - HISTORY:     5 CYCLES
 TTTTTTTTTTTTTTTTTTTTTTTTTTTTTT FDIK        TELAPSE       40.90 TCPU       37.94
 INSULATING STATE
 TOP OF VALENCE BANDS -    BAND    156; K   18; EIG -1.7061385E-01 AU
 TOP OF VALENCE BANDS -    BAND    156; K    1; EIG -1.8614415E-01 AU
 BOTTOM OF VIRTUAL BANDS - BAND    157; K   17; EIG -7.3500935E-02 AU
 INDIRECT ENERGY BAND GAP:   2.6426 eV
 BOTTOM OF VIRTUAL BANDS - BAND    157; K    1; EIG -5.2372273E-02 AU
 TTTTTTTTTTTTTTTTTTTTTTTTTTTTTT PDIG        TELAPSE       41.04 TCPU       38.08
 TTTTTTTTTTTTTTTTTTTTTTTTTTTTTT MOQGAD      TELAPSE       41.05 TCPU       38.08
 TTTTTTTTTTTTTTTTTTTTTTTTTTTTTT SHELLXN     TELAPSE       45.23 TCPU       42.24
 TTTTTTTTTTTTTTTTTTTTTTTTTTTTTT MONMO3      TELAPSE       45.25 TCPU       42.27
 NUMERICALLY INTEGRATED DENSITY    311.9999928535
 TTTTTTTTTTTTTTTTTTTTTTTTTTTTTT NUMDFT      TELAPSE       45.58 TCPU       42.59
 CYC   6 ETOT(AU) -6.855192706581E+03 DETOT -8.99E-06 tst  8.87E-08 PX  8.83E-04
 TTTTTTTTTTTTTTTTTTTTTTTTTTTTTT DIIS        TELAPSE       45.59 TCPU       42.60
 DIIS TEST: 0.27842E-05 AT SCF   CYCLE   6 - DIIS ACTIVE - HISTORY:     6 CYCLES
 TTTTTTTTTTTTTTTTTTTTTTTTTTTTTT FDIK        TELAPSE       45.81 TCPU       42.82
 INSULATING STATE
 TOP OF VALENCE BANDS -    BAND    156; K   18; EIG -1.7051411E-01 AU
 TOP OF VALENCE BANDS -    BAND    156; K    1; EIG -1.8607927E-01 AU
 BOTTOM OF VIRTUAL BANDS - BAND    157; K   17; EIG -7.3423282E-02 AU
 INDIRECT ENERGY BAND GAP:   2.6420 eV
 BOTTOM OF VIRTUAL BANDS - BAND    157; K    1; EIG -5.2279141E-02 AU
 TTTTTTTTTTTTTTTTTTTTTTTTTTTTTT PDIG        TELAPSE       45.96 TCPU       42.96
 TTTTTTTTTTTTTTTTTTTTTTTTTTTTTT MOQGAD      TELAPSE       45.96 TCPU       42.97
 TTTTTTTTTTTTTTTTTTTTTTTTTTTTTT SHELLXN     TELAPSE       50.14 TCPU       47.12
 TTTTTTTTTTTTTTTTTTTTTTTTTTTTTT MONMO3      TELAPSE       50.16 TCPU       47.15
 NUMERICALLY INTEGRATED DENSITY    311.9999928519
 TTTTTTTTTTTTTTTTTTTTTTTTTTTTTT NUMDFT      TELAPSE       50.49 TCPU       47.47
 CYC   7 ETOT(AU) -6.855192706291E+03 DETOT  2.91E-07 tst  5.10E-09 PX  4.64E-04
 TTTTTTTTTTTTTTTTTTTTTTTTTTTTTT DIIS        TELAPSE       50.50 TCPU       47.48
 DIIS TEST: 0.77435E-07 AT SCF   CYCLE   7 - DIIS ACTIVE - HISTORY:     7 CYCLES
 TTTTTTTTTTTTTTTTTTTTTTTTTTTTTT FDIK        TELAPSE       50.72 TCPU       47.69
 INSULATING STATE
 TOP OF VALENCE BANDS -    BAND    156; K   18; EIG -1.7051375E-01 AU
 TOP OF VALENCE BANDS -    BAND    156; K    1; EIG -1.8607726E-01 AU
 BOTTOM OF VIRTUAL BANDS - BAND    157; K   17; EIG -7.3417416E-02 AU
 INDIRECT ENERGY BAND GAP:   2.6421 eV
 BOTTOM OF VIRTUAL BANDS - BAND    157; K    1; EIG -5.2274957E-02 AU
 TTTTTTTTTTTTTTTTTTTTTTTTTTTTTT PDIG        TELAPSE       50.87 TCPU       47.84
 TTTTTTTTTTTTTTTTTTTTTTTTTTTTTT MOQGAD      TELAPSE       50.87 TCPU       47.84
 TTTTTTTTTTTTTTTTTTTTTTTTTTTTTT SHELLXN     TELAPSE       55.04 TCPU       51.99
 TTTTTTTTTTTTTTTTTTTTTTTTTTTTTT MONMO3      TELAPSE       55.06 TCPU       52.01
 NUMERICALLY INTEGRATED DENSITY    311.9999928513
 TTTTTTTTTTTTTTTTTTTTTTTTTTTTTT NUMDFT      TELAPSE       55.27 TCPU       52.21
 CYC   8 ETOT(AU) -6.855192706419E+03 DETOT -1.28E-07 tst  3.83E-10 PX  5.84E-05
 TTTTTTTTTTTTTTTTTTTTTTTTTTTTTT DIIS        TELAPSE       55.28 TCPU       52.23
 DIIS TEST: 0.95538E-08 AT SCF   CYCLE   8 - DIIS ACTIVE - HISTORY:     8 CYCLES
 TTTTTTTTTTTTTTTTTTTTTTTTTTTTTT FDIK        TELAPSE       55.50 TCPU       52.44
 INSULATING STATE
 TOP OF VALENCE BANDS -    BAND    156; K   18; EIG -1.7051705E-01 AU
 TOP OF VALENCE BANDS -    BAND    156; K    1; EIG -1.8608159E-01 AU
 BOTTOM OF VIRTUAL BANDS - BAND    157; K   17; EIG -7.3420829E-02 AU
 INDIRECT ENERGY BAND GAP:   2.6421 eV
 BOTTOM OF VIRTUAL BANDS - BAND    157; K    1; EIG -5.2279389E-02 AU
 TTTTTTTTTTTTTTTTTTTTTTTTTTTTTT PDIG        TELAPSE       55.64 TCPU       52.58
 TTTTTTTTTTTTTTTTTTTTTTTTTTTTTT MOQGAD      TELAPSE       55.64 TCPU       52.59
 TTTTTTTTTTTTTTTTTTTTTTTTTTTTTT SHELLXN     TELAPSE       59.82 TCPU       56.73
 TTTTTTTTTTTTTTTTTTTTTTTTTTTTTT MONMO3      TELAPSE       59.84 TCPU       56.76
 NUMERICALLY INTEGRATED DENSITY    311.9999928517
 TTTTTTTTTTTTTTTTTTTTTTTTTTTTTT NUMDFT      TELAPSE       60.04 TCPU       56.96
 CYC   9 ETOT(AU) -6.855192706420E+03 DETOT -9.26E-10 tst  3.67E-11 PX  2.21E-05
 TTTTTTTTTTTTTTTTTTTTTTTTTTTTTT DIIS        TELAPSE       60.06 TCPU       56.97
 DIIS TEST: 0.14636E-08 AT SCF   CYCLE   9 - DIIS ACTIVE - HISTORY:     9 CYCLES
 TTTTTTTTTTTTTTTTTTTTTTTTTTTTTT FDIK        TELAPSE       60.27 TCPU       57.18
 INSULATING STATE
 TOP OF VALENCE BANDS -    BAND    156; K   18; EIG -1.7051747E-01 AU
 TOP OF VALENCE BANDS -    BAND    156; K    1; EIG -1.8608221E-01 AU
 BOTTOM OF VIRTUAL BANDS - BAND    157; K   17; EIG -7.3421483E-02 AU
 INDIRECT ENERGY BAND GAP:   2.6421 eV
 BOTTOM OF VIRTUAL BANDS - BAND    157; K    1; EIG -5.2280109E-02 AU
 TTTTTTTTTTTTTTTTTTTTTTTTTTTTTT PDIG        TELAPSE       60.42 TCPU       57.33
 TTTTTTTTTTTTTTTTTTTTTTTTTTTTTT MOQGAD      TELAPSE       60.42 TCPU       57.33
 TTTTTTTTTTTTTTTTTTTTTTTTTTTTTT SHELLXN     TELAPSE       64.60 TCPU       61.48
 TTTTTTTTTTTTTTTTTTTTTTTTTTTTTT MONMO3      TELAPSE       64.62 TCPU       61.50
 NUMERICALLY INTEGRATED DENSITY    311.9999928516
 TTTTTTTTTTTTTTTTTTTTTTTTTTTTTT NUMDFT      TELAPSE       64.82 TCPU       61.70
 CYC  10 ETOT(AU) -6.855192706418E+03 DETOT  1.37E-09 tst  6.30E-12 PX  9.85E-06
 TTTTTTTTTTTTTTTTTTTTTTTTTTTTTT DIIS        TELAPSE       64.84 TCPU       61.72
 DIIS TEST: 0.77677E-10 AT SCF   CYCLE  10 - DIIS ACTIVE - HISTORY:    10 CYCLES
 TTTTTTTTTTTTTTTTTTTTTTTTTTTTTT FDIK        TELAPSE       65.06 TCPU       61.93
 INSULATING STATE
 TOP OF VALENCE BANDS -    BAND    156; K   18; EIG -1.7051736E-01 AU
 TOP OF VALENCE BANDS -    BAND    156; K    1; EIG -1.8608212E-01 AU
 BOTTOM OF VIRTUAL BANDS - BAND    157; K   17; EIG -7.3421308E-02 AU
 INDIRECT ENERGY BAND GAP:   2.6421 eV
 BOTTOM OF VIRTUAL BANDS - BAND    157; K    1; EIG -5.2279961E-02 AU
 TTTTTTTTTTTTTTTTTTTTTTTTTTTTTT PDIG        TELAPSE       65.20 TCPU       62.08
 TTTTTTTTTTTTTTTTTTTTTTTTTTTTTT MOQGAD      TELAPSE       65.20 TCPU       62.08
 TTTTTTTTTTTTTTTTTTTTTTTTTTTTTT SHELLXN     TELAPSE       69.38 TCPU       66.23
 TTTTTTTTTTTTTTTTTTTTTTTTTTTTTT MONMO3      TELAPSE       69.40 TCPU       66.25
 NUMERICALLY INTEGRATED DENSITY    311.9999928516
 TTTTTTTTTTTTTTTTTTTTTTTTTTTTTT NUMDFT      TELAPSE       69.60 TCPU       66.45
 CYC  11 ETOT(AU) -6.855192706415E+03 DETOT  3.54E-09 tst  2.72E-13 PX  1.97E-06
 TTTTTTTTTTTTTTTTTTTTTTTTTTTTTT DIIS        TELAPSE       69.62 TCPU       66.47
 DIIS TEST: 0.18637E-11 AT SCF   CYCLE  11 - DIIS ACTIVE - HISTORY:    11 CYCLES
 TTTTTTTTTTTTTTTTTTTTTTTTTTTTTT FDIK        TELAPSE       69.83 TCPU       66.68
 INSULATING STATE
 TOP OF VALENCE BANDS -    BAND    156; K   18; EIG -1.7051737E-01 AU
 TOP OF VALENCE BANDS -    BAND    156; K    1; EIG -1.8608213E-01 AU
 BOTTOM OF VIRTUAL BANDS - BAND    157; K   17; EIG -7.3421333E-02 AU
 INDIRECT ENERGY BAND GAP:   2.6421 eV
 BOTTOM OF VIRTUAL BANDS - BAND    157; K    1; EIG -5.2280007E-02 AU
 TTTTTTTTTTTTTTTTTTTTTTTTTTTTTT PDIG        TELAPSE       69.98 TCPU       66.82
 TTTTTTTTTTTTTTTTTTTTTTTTTTTTTT MOQGAD      TELAPSE       69.98 TCPU       66.82
 TTTTTTTTTTTTTTTTTTTTTTTTTTTTTT SHELLXN     TELAPSE       74.17 TCPU       70.99
 TTTTTTTTTTTTTTTTTTTTTTTTTTTTTT MONMO3      TELAPSE       74.19 TCPU       71.01
 NUMERICALLY INTEGRATED DENSITY    311.9999928516
 TTTTTTTTTTTTTTTTTTTTTTTTTTTTTT NUMDFT      TELAPSE       74.43 TCPU       71.24
 CYC  12 ETOT(AU) -6.855192706415E+03 DETOT  2.91E-11 tst  3.45E-14 PX  3.20E-07
 TTTTTTTTTTTTTTTTTTTTTTTTTTTTTT DIIS        TELAPSE       74.44 TCPU       71.26
 DIIS TEST: 0.28340E-12 AT SCF   CYCLE  12 - DIIS ACTIVE - HISTORY:    12 CYCLES
 TTTTTTTTTTTTTTTTTTTTTTTTTTTTTT FDIK        TELAPSE       74.66 TCPU       71.47
 INSULATING STATE
 TOP OF VALENCE BANDS -    BAND    156; K   18; EIG -1.7051737E-01 AU
 TOP OF VALENCE BANDS -    BAND    156; K    1; EIG -1.8608213E-01 AU
 BOTTOM OF VIRTUAL BANDS - BAND    157; K   17; EIG -7.3421327E-02 AU
 INDIRECT ENERGY BAND GAP:   2.6421 eV
 BOTTOM OF VIRTUAL BANDS - BAND    157; K    1; EIG -5.2279997E-02 AU
 TTTTTTTTTTTTTTTTTTTTTTTTTTTTTT PDIG        TELAPSE       74.85 TCPU       71.67
 TTTTTTTTTTTTTTTTTTTTTTTTTTTTTT MOQGAD      TELAPSE       74.85 TCPU       71.67
 TTTTTTTTTTTTTTTTTTTTTTTTTTTTTT SHELLXN     TELAPSE       79.03 TCPU       75.82
 TTTTTTTTTTTTTTTTTTTTTTTTTTTTTT MONMO3      TELAPSE       79.06 TCPU       75.85
 NUMERICALLY INTEGRATED DENSITY    311.9999928516
 TTTTTTTTTTTTTTTTTTTTTTTTTTTTTT NUMDFT      TELAPSE       79.26 TCPU       76.04
 CYC  13 ETOT(AU) -6.855192706415E+03 DETOT -1.54E-10 tst  6.36E-16 PX  1.39E-07
 TTTTTTTTTTTTTTTTTTTTTTTTTTTTTT DIIS        TELAPSE       79.27 TCPU       76.06
 DIIS TEST: 0.28652E-13 AT SCF   CYCLE  13 - DIIS ACTIVE - HISTORY:    13 CYCLES
 TTTTTTTTTTTTTTTTTTTTTTTTTTTTTT FDIK        TELAPSE       79.49 TCPU       76.27
 INSULATING STATE
 TOP OF VALENCE BANDS -    BAND    156; K   18; EIG -1.7051737E-01 AU
 TOP OF VALENCE BANDS -    BAND    156; K    1; EIG -1.8608212E-01 AU
 BOTTOM OF VIRTUAL BANDS - BAND    157; K   17; EIG -7.3421326E-02 AU
 INDIRECT ENERGY BAND GAP:   2.6421 eV
 BOTTOM OF VIRTUAL BANDS - BAND    157; K    1; EIG -5.2279997E-02 AU
 TTTTTTTTTTTTTTTTTTTTTTTTTTTTTT PDIG        TELAPSE       79.64 TCPU       76.42
 TTTTTTTTTTTTTTTTTTTTTTTTTTTTTT MOQGAD      TELAPSE       79.64 TCPU       76.42
 TTTTTTTTTTTTTTTTTTTTTTTTTTTTTT SHELLXN     TELAPSE       83.81 TCPU       80.57
 TTTTTTTTTTTTTTTTTTTTTTTTTTTTTT MONMO3      TELAPSE       83.84 TCPU       80.59
 NUMERICALLY INTEGRATED DENSITY    311.9999928516
 TTTTTTTTTTTTTTTTTTTTTTTTTTTTTT NUMDFT      TELAPSE       84.04 TCPU       80.79
 CYC  14 ETOT(AU) -6.855192706415E+03 DETOT  1.34E-10 tst  9.71E-17 PX  4.06E-08
 TTTTTTTTTTTTTTTTTTTTTTTTTTTTTT DIIS        TELAPSE       84.06 TCPU       80.81
 DIIS TEST: 0.88851E-15 AT SCF   CYCLE  14 - DIIS ACTIVE - HISTORY:    14 CYCLES
 TTTTTTTTTTTTTTTTTTTTTTTTTTTTTT FDIK        TELAPSE       84.27 TCPU       81.02
 INSULATING STATE
 TOP OF VALENCE BANDS -    BAND    156; K   18; EIG -1.7051737E-01 AU
 TOP OF VALENCE BANDS -    BAND    156; K    1; EIG -1.8608212E-01 AU
 BOTTOM OF VIRTUAL BANDS - BAND    157; K   17; EIG -7.3421327E-02 AU
 INDIRECT ENERGY BAND GAP:   2.6421 eV
 BOTTOM OF VIRTUAL BANDS - BAND    157; K    1; EIG -5.2279997E-02 AU
 TTTTTTTTTTTTTTTTTTTTTTTTTTTTTT PDIG        TELAPSE       84.42 TCPU       81.17
 TTTTTTTTTTTTTTTTTTTTTTTTTTTTTT MOQGAD      TELAPSE       84.42 TCPU       81.17
 TTTTTTTTTTTTTTTTTTTTTTTTTTTTTT SHELLXN     TELAPSE       88.59 TCPU       85.32
 TTTTTTTTTTTTTTTTTTTTTTTTTTTTTT MONMO3      TELAPSE       88.62 TCPU       85.34
 NUMERICALLY INTEGRATED DENSITY    311.9999928516
 TTTTTTTTTTTTTTTTTTTTTTTTTTTTTT NUMDFT      TELAPSE       88.82 TCPU       85.54
 CYC  15 ETOT(AU) -6.855192706415E+03 DETOT -9.09E-12 tst  8.78E-18 PX  5.90E-09
 TTTTTTTTTTTTTTTTTTTTTTTTTTTTTT DIIS        TELAPSE       88.83 TCPU       85.56
 DIIS TEST: 0.37550E-16 AT SCF   CYCLE  15 - DIIS ACTIVE - HISTORY:    15 CYCLES
 TTTTTTTTTTTTTTTTTTTTTTTTTTTTTT FDIK        TELAPSE       89.05 TCPU       85.77
 INSULATING STATE
 TOP OF VALENCE BANDS -    BAND    156; K   18; EIG -1.7051737E-01 AU
 TOP OF VALENCE BANDS -    BAND    156; K    1; EIG -1.8608212E-01 AU
 BOTTOM OF VIRTUAL BANDS - BAND    157; K   17; EIG -7.3421327E-02 AU
 INDIRECT ENERGY BAND GAP:   2.6421 eV
 BOTTOM OF VIRTUAL BANDS - BAND    157; K    1; EIG -5.2279997E-02 AU
 TTTTTTTTTTTTTTTTTTTTTTTTTTTTTT PDIG        TELAPSE       89.20 TCPU       85.91
 TTTTTTTTTTTTTTTTTTTTTTTTTTTTTT MOQGAD      TELAPSE       89.20 TCPU       85.91
 TTTTTTTTTTTTTTTTTTTTTTTTTTTTTT SHELLXN     TELAPSE       93.36 TCPU       90.06
 ::: PSEUDO TOTAL   ENERGY                        -6.4992007692478E+03
 ::: VIRIAL COEFFICIENT                            1.0261236094507E+00
 TTTTTTTTTTTTTTTTTTTTTTTTTTTTTT MONMO3      TELAPSE       93.39 TCPU       90.08
 NUMERICALLY INTEGRATED DENSITY    311.9999928516
 EXCHANGE ENERGY: -0.343795049324E+03  CORRELATION ENERGY: -0.121968878436E+02
 TTTTTTTTTTTTTTTTTTTTTTTTTTTTTT NUMDFT      TELAPSE       93.83 TCPU       90.52
 CYC  16 ETOT(AU) -6.855192706415E+03 DETOT -4.55E-12 tst  6.57E-19 PX  5.90E-09

 == SCF ENDED - CONVERGENCE ON ENERGY      E(AU) -6.8551927064149E+03 CYCLES  16


 ENERGY EXPRESSION=HARTREE+FOCK EXCH*0.25000+(PBE        EXCH)*0.75000+PBE        CORR


 TOTAL ENERGY(DFT)(AU)( 16) -6.8551927064149E+03 DE-4.5E-12 tester 6.6E-19
 TTTTTTTTTTTTTTTTTTTTTTTTTTTTTT EDFT        TELAPSE       93.83 TCPU       90.52

 *******************************************************************************
 *                             FORCE CALCULATION                               *
 *******************************************************************************

 TTTTTTTTTTTTTTTTTTTTTTTTTTTTTT NUMDFG      TELAPSE       94.75 TCPU       91.43
 INFORMATION **** EXCPOG **** EXCH. BIPO BUFFER LENGTH (WORDS) =     8398332
 INFORMATION **** GENPOG **** BIPO BUFFER LENGTH (WORDS) =     2810800
 TTTTTTTTTTTTTTTTTTTTTTTTTTTTTT SHELXG      TELAPSE      113.95 TCPU      110.51

 CARTESIAN FORCES IN HARTREE/BOHR (ANALYTICAL)
   ATOM                     X                   Y                   Z
   1   3             7.166532415388E-04 -1.169505983452E-04 -7.402805358804E-04
   2   3            -7.166532415406E-04  1.169505983477E-04 -7.402805358830E-04
   3   3            -7.166532415445E-04 -1.169505983474E-04 -7.402805358835E-04
   4   3             7.166532415430E-04  1.169505983463E-04 -7.402805358816E-04
   5  15            -4.641347563928E-04  1.983938482475E-05  5.240529631967E-05
   6  15             4.641347563820E-04 -1.983938481587E-05  5.240529631123E-05
   7  15             4.641347563633E-04  1.983938483363E-05  5.240529631867E-05
   8  15            -4.641347563784E-04 -1.983938483185E-05  5.240529632311E-05
   9  15             9.400349154289E-04 -8.496381880452E-04  3.092980600314E-04
  10  15            -9.400349154046E-04  8.496381880274E-04  3.092980600186E-04
  11  15            -9.400349154446E-04 -8.496381880452E-04  3.092980600161E-04
  12  15             9.400349154394E-04  8.496381880470E-04  3.092980600294E-04
  13  15            -5.582454454203E-04 -5.121660410399E-04 -4.661886027407E-05
  14  15             5.582454454220E-04  5.121660410408E-04 -4.661886028035E-05
  15  15             5.582454454096E-04 -5.121660410328E-04 -4.661886027829E-05
  16  15            -5.582454453990E-04  5.121660410339E-04 -4.661886027330E-05
  17  15            -6.930014868614E-04  4.238848107772E-04  1.075991973531E-05
  18  15             6.930014868698E-04 -4.238848107860E-04  1.075991974731E-05
  19  15             6.930014868529E-04  4.238848107878E-04  1.075991974492E-05
  20  15            -6.930014868596E-04 -4.238848107825E-04  1.075991973426E-05
  21  15            -6.544916898878E-04  8.013913568270E-04  4.144361200643E-04
  22  15             6.544916898950E-04 -8.013913568243E-04  4.144361200695E-04
  23  15             6.544916898505E-04  8.013913568385E-04  4.144361200663E-04
  24  15            -6.544916898612E-04 -8.013913568368E-04  4.144361200677E-04

 RESULTANT FORCE     5.551115123126E-16 -1.110223024625E-15 -3.655409308578E-14

 ATOMIC PART

 SYMMETRY ALLOWED FORCES (ANALYTICAL) (DIRECTION, FORCE)

    1  1.4333065E-03    2 -2.3390120E-04    3 -1.6218734E-03    4 -9.2826951E-04
    5  3.9678770E-05    6 -2.1388172E-04    7  1.8800698E-03    8 -1.6992764E-03
    9  3.1714832E-04   10 -1.1164909E-03   11 -1.0243321E-03   12 -4.2329939E-04
   13 -1.3860030E-03   14  8.4776962E-04   15 -5.7088436E-04   16 -1.3089834E-03
   17  1.6027827E-03

 CELL PART

 GRADIENT WITH RESPECT TO THE CELL PARAMETER IN HARTREE/BOHR
ORDER: -D/DA1X, -D/DA1Y, -D/DA1Z
       -D/DA2X, -D/DA2Y, -D/DA2Z
       -D/DA3X, -D/DA3Y, -D/DA3Z
  0.480524795784E-02  0.800350088198E-14 -0.265387860637E-14
  0.321239171219E-14  0.700449653808E-02 -0.928811371920E-15
 -0.135272431192E-15 -0.110476319397E-14  0.124427895071E-01

STRESS TENSOR, IN HARTREE/BOHR^3:
ORDER: 11 12 13
       21 22 23
       31 32 33
 -0.311824607440E-04 -0.131607331854E-16  0.550811734506E-18
 -0.519367271484E-16 -0.286964723779E-04  0.449845194417E-17
  0.172216847473E-16  0.380521422685E-17 -0.506654194806E-04

PRESSURE FROM THE STRESS TENSOR,
IN HARTREE/BOHR^3:  0.36848E-04
PRESSURE IN GIGAPASCAL:  0.1084E+01
CONVERSION FACTOR: 1 HARTREE/BOHR^3= 29421 GIGAPASCAL
WHEN USING VALUES FOR BOHR RADIUS AND HARTREE
FROM IUPAC WEBSITE, APRIL 2009
ENTHALPY: -6.8550807122806E+03

 SYMMETRY ALLOWED FORCES (ANALYTICAL) (DIRECTION, FORCE)

    1  8.8585387E-03    2 -8.5286776E-04    3 -2.5327423E-03
 TTTTTTTTTTTTTTTTTTTTTTTTTTTTTT TOTGRA      TELAPSE      114.48 TCPU      111.03
 INFORMATION **** optc001 **** GEOMETRY OUTPUT FILE
 CLASSICAL MODEL (SCHLEGEL) USED AS INITIAL HESSIAN MATRIX
 REFERENCE GEOMETRY DEFINED

 MAX GRADIENT      0.008859  THRESHOLD              0.000045 CONVERGED NO
 RMS GRADIENT      0.002319  THRESHOLD              0.000030 CONVERGED NO

 GRADIENT NORM     0.010369  GRADIENT THRESHOLD     0.500000

 EIGENVALUES OF THE ESTIMATED HESSIAN
  0.8427E-02  0.2070E-01  0.3069E-01  0.3879E-01  0.4043E-01  0.6063E-01
  0.7031E-01  0.9058E-01  0.1012      0.1101      0.1274      0.1486    
  0.2119      0.2570      0.2674      0.3126      0.3179      0.3511    
  0.3881      0.4617    

 INITIAL TRUST RADIUS    0.5000000000E+00

 PREDICTED ENERGY CHANGE    -0.159E-02

 INITIAL DISPLACEMENTS
  0.024447  0.061979 -0.018584 -0.003223  0.080921  0.013624  0.027333  0.052928
 -0.012164 -0.028856  0.046250 -0.004016  0.009198 -0.047484 -0.009874 -0.001585
 -0.011648  0.374414 -0.147462  0.077208
 TTTTTTTTTTTTTTTTTTTTTTTTTTTTTT OPTI        TELAPSE      115.74 TCPU      112.28

 OPTOPTOPTOPTOPTOPTOPTOPTOPTOPTOPTOPTOPTOPTOPTOPTOPTOPTOPTOPTOPTOPTOPTOPTOPTOPT

 - INFORMATION ON SCF MOVED TO SCFOUT.LOG
 GEOMETRY OPTIMIZATION INFORMATION STORED IN OPTINFO.DAT

 OPTOPTOPTOPTOPTOPTOPTOPTOPTOPTOPTOPTOPTOPTOPTOPTOPTOPTOPTOPTOPTOPTOPTOPTOPTOPT
 *******************************************************************************
 COORDINATE AND CELL OPTIMIZATION - POINT    2
 *******************************************************************************
 LATTICE PARAMETERS (ANGSTROMS AND DEGREES) - BOHR = 0.5291772083 ANGSTROM
 PRIMITIVE CELL - CENTRING CODE 1/0 VOLUME=   463.842901 - DENSITY  2.318 g/cm^3
         A              B              C           ALPHA      BETA       GAMMA 
    10.48921461     6.68958612     6.61041453    90.000000  90.000000  90.000000
 *******************************************************************************
 ATOMS IN THE ASYMMETRIC UNIT    6 - ATOMS IN THE UNIT CELL:   24
     ATOM                 X/A                 Y/B                 Z/C    
 *******************************************************************************
      1 T   3 LI   -4.213802464472E-01  4.572887611389E-01  3.874146149725E-01
      2 F   3 LI    4.213802464472E-01 -4.572887611389E-01 -1.125853850275E-01
      3 F   3 LI   -7.861975355277E-02 -4.271123886114E-02 -1.125853850275E-01
      4 F   3 LI    7.861975355277E-02  4.271123886114E-02  3.874146149725E-01
      5 T  15 P    -8.580169411818E-02  4.162693926300E-01  2.579193814729E-01
      6 F  15 P     8.580169411818E-02 -4.162693926300E-01 -2.420806185271E-01
      7 F  15 P    -4.141983058818E-01 -8.373060737000E-02 -2.420806185271E-01
      8 F  15 P     4.141983058818E-01  8.373060737000E-02  2.579193814729E-01
      9 T  15 P    -4.069770788754E-01 -9.612468100014E-02  2.424084136172E-01
     10 F  15 P     4.069770788754E-01  9.612468100014E-02 -2.575915863828E-01
     11 F  15 P    -9.302292112464E-02  4.038753189999E-01 -2.575915863828E-01
     12 F  15 P     9.302292112464E-02 -4.038753189999E-01  2.424084136172E-01
     13 T  15 P    -3.071015371945E-01  7.924717139705E-02  2.338083504754E-05
     14 F  15 P     3.071015371945E-01 -7.924717139705E-02 -4.999766191650E-01
     15 F  15 P    -1.928984628055E-01 -4.207528286030E-01 -4.999766191650E-01
     16 F  15 P     1.928984628055E-01  4.207528286030E-01  2.338083504754E-05
     17 T  15 P    -3.086068297648E-01  5.483327134905E-02  4.995800366135E-01
     18 F  15 P     3.086068297648E-01 -5.483327134905E-02 -4.199633865392E-04
     19 F  15 P    -1.913931702352E-01 -4.451667286510E-01 -4.199633865392E-04
     20 F  15 P     1.913931702352E-01  4.451667286510E-01  4.995800366135E-01
     21 T  15 P    -3.714601804657E-01  3.903822758745E-01  1.573417248881E-02
     22 F  15 P     3.714601804657E-01 -3.903822758745E-01 -4.842658275112E-01
     23 F  15 P    -1.285398195343E-01 -1.096177241255E-01 -4.842658275112E-01
     24 F  15 P     1.285398195343E-01  1.096177241255E-01  1.573417248881E-02

 T = ATOM BELONGING TO THE ASYMMETRIC UNIT

 TOTAL ENERGY(DFT)(AU)( 14) -6.8551935194311E+03     DE (AU)   -8.130E-04

 UPDATED TRUST RADIUS     0.500E+00

 SYMMETRY ALLOWED FORCES  (COORDINATE, FORCE)

    1  1.0982606E-03    2 -6.2641778E-04    3 -2.3181236E-03    4 -7.4915530E-04
    5 -4.5242482E-04    6  1.0596068E-04    7  1.2193362E-03    8 -8.2850582E-04
    9 -1.1635492E-03   10 -4.4194889E-03   11  1.0688813E-03   12 -5.4096314E-04
   13  1.0837835E-03   14  9.4975720E-04   15 -6.3584305E-04   16  3.5203451E-03
   17 -1.5851104E-03   18 -4.0922964E-03   19  2.3480109E-04   20 -8.3097958E-04

 GRADIENT NORM     0.008193  GRADIENT THRESHOLD     0.500000

 EIGENVALUES OF THE ESTIMATED HESSIAN
  0.1204E-01  0.2074E-01  0.3040E-01  0.3840E-01  0.4046E-01  0.6073E-01
  0.7028E-01  0.9084E-01  0.1015      0.1097      0.1273      0.1487    
  0.2120      0.2573      0.2706      0.3129      0.3179      0.3501    
  0.3975      0.4623    

 PREDICTED ENERGY CHANGE    -0.379E-03

 MAX GRADIENT      0.004419  THRESHOLD              0.000045 CONVERGED NO
 RMS GRADIENT      0.001832  THRESHOLD              0.000030 CONVERGED NO
 MAX DISPLAC.      0.128233  THRESHOLD              0.000180 CONVERGED NO
 RMS DISPLAC.      0.045500  THRESHOLD              0.000120 CONVERGED NO
 TTTTTTTTTTTTTTTTTTTTTTTTTTTTTT OPTI        TELAPSE      212.44 TCPU      208.32
 *******************************************************************************
 COORDINATE AND CELL OPTIMIZATION - POINT    3
 *******************************************************************************
 LATTICE PARAMETERS (ANGSTROMS AND DEGREES) - BOHR = 0.5291772083 ANGSTROM
 PRIMITIVE CELL - CENTRING CODE 1/0 VOLUME=   459.143547 - DENSITY  2.342 g/cm^3
         A              B              C           ALPHA      BETA       GAMMA 
    10.47947468     6.63029088     6.60809671    90.000000  90.000000  90.000000
 *******************************************************************************
 ATOMS IN THE ASYMMETRIC UNIT    6 - ATOMS IN THE UNIT CELL:   24
     ATOM                 X/A                 Y/B                 Z/C    
 *******************************************************************************
      1 T   3 LI   -4.212015421889E-01  4.556891010152E-01  3.868412221898E-01
      2 F   3 LI    4.212015421889E-01 -4.556891010152E-01 -1.131587778102E-01
      3 F   3 LI   -7.879845781108E-02 -4.431089898480E-02 -1.131587778102E-01
      4 F   3 LI    7.879845781108E-02  4.431089898480E-02  3.868412221898E-01
      5 T  15 P    -8.552676548655E-02  4.151559799614E-01  2.576086497400E-01
      6 F  15 P     8.552676548655E-02 -4.151559799614E-01 -2.423913502600E-01
      7 F  15 P    -4.144732345135E-01 -8.484402003860E-02 -2.423913502600E-01
      8 F  15 P     4.144732345135E-01  8.484402003860E-02  2.576086497400E-01
      9 T  15 P    -4.068880225364E-01 -9.768700608749E-02  2.429360167408E-01
     10 F  15 P     4.068880225364E-01  9.768700608749E-02 -2.570639832592E-01
     11 F  15 P    -9.311197746358E-02  4.023129939125E-01 -2.570639832592E-01
     12 F  15 P     9.311197746358E-02 -4.023129939125E-01  2.429360167408E-01
     13 T  15 P    -3.072755792843E-01  7.820759039175E-02 -4.516083113019E-05
     14 F  15 P     3.072755792843E-01 -7.820759039175E-02  4.999548391689E-01
     15 F  15 P    -1.927244207157E-01 -4.217924096082E-01  4.999548391689E-01
     16 F  15 P     1.927244207157E-01  4.217924096082E-01 -4.516083113019E-05
     17 T  15 P    -3.088831083307E-01  5.622033144407E-02  4.998174992111E-01
     18 F  15 P     3.088831083307E-01 -5.622033144407E-02 -1.825007888723E-04
     19 F  15 P    -1.911168916693E-01 -4.437796685559E-01 -1.825007888723E-04
     20 F  15 P     1.911168916693E-01  4.437796685559E-01  4.998174992111E-01
     21 T  15 P    -3.712912058649E-01  3.910037456543E-01  1.592177294946E-02
     22 F  15 P     3.712912058649E-01 -3.910037456543E-01 -4.840782270505E-01
     23 F  15 P    -1.287087941351E-01 -1.089962543457E-01 -4.840782270505E-01
     24 F  15 P     1.287087941351E-01  1.089962543457E-01  1.592177294946E-02

 T = ATOM BELONGING TO THE ASYMMETRIC UNIT

 TOTAL ENERGY(DFT)(AU)( 13) -6.8551939036065E+03     DE (AU)   -3.842E-04

 UPDATED TRUST RADIUS     0.500E+00

 SYMMETRY ALLOWED FORCES  (COORDINATE, FORCE)

    1  8.4568113E-04    2  6.8166726E-05    3 -1.7109369E-03    4 -1.5191458E-05
    5  2.3606830E-04    6 -5.5983442E-04    7  2.0128387E-04    8  1.5884335E-04
    9 -1.6016329E-04   10 -1.3073958E-03   11 -2.3508777E-04   12 -1.0205703E-04
   13 -2.8434758E-04   14 -4.5151901E-04   15 -8.9305953E-04   16  6.5233380E-04
   17  1.0801169E-03   18 -5.8310067E-04   19  8.1695791E-07   20  1.0177493E-03

 GRADIENT NORM     0.003152  GRADIENT THRESHOLD     0.500000

 EIGENVALUES OF THE ESTIMATED HESSIAN
  0.1378E-01  0.2064E-01  0.3109E-01  0.3718E-01  0.4043E-01  0.5964E-01
  0.7037E-01  0.8798E-01  0.9823E-01  0.1091      0.1274      0.1494    
  0.2065      0.2588      0.2713      0.3122      0.3180      0.3493    
  0.3831      0.4680    

 PREDICTED ENERGY CHANGE    -0.395E-04

 MAX GRADIENT      0.001711  THRESHOLD              0.000045 CONVERGED NO
 RMS GRADIENT      0.000705  THRESHOLD              0.000030 CONVERGED NO
 MAX DISPLAC.      0.022185  THRESHOLD              0.000180 CONVERGED NO
 RMS DISPLAC.      0.007391  THRESHOLD              0.000120 CONVERGED NO
 TTTTTTTTTTTTTTTTTTTTTTTTTTTTTT OPTI        TELAPSE      304.42 TCPU      299.67
 *******************************************************************************
 COORDINATE AND CELL OPTIMIZATION - POINT    4
 *******************************************************************************
 LATTICE PARAMETERS (ANGSTROMS AND DEGREES) - BOHR = 0.5291772083 ANGSTROM
 PRIMITIVE CELL - CENTRING CODE 1/0 VOLUME=   458.847345 - DENSITY  2.343 g/cm^3
         A              B              C           ALPHA      BETA       GAMMA 
    10.47857210     6.63401919     6.60069086    90.000000  90.000000  90.000000
 *******************************************************************************
 ATOMS IN THE ASYMMETRIC UNIT    6 - ATOMS IN THE UNIT CELL:   24
     ATOM                 X/A                 Y/B                 Z/C    
 *******************************************************************************
      1 T   3 LI   -4.209489316913E-01  4.558792371263E-01  3.863255537299E-01
      2 F   3 LI    4.209489316913E-01 -4.558792371263E-01 -1.136744462701E-01
      3 F   3 LI   -7.905106830873E-02 -4.412076287370E-02 -1.136744462701E-01
      4 F   3 LI    7.905106830873E-02  4.412076287370E-02  3.863255537299E-01
      5 T  15 P    -8.543967139531E-02  4.153729290709E-01  2.577232875838E-01
      6 F  15 P     8.543967139531E-02 -4.153729290709E-01 -2.422767124162E-01
      7 F  15 P    -4.145603286047E-01 -8.462707092907E-02 -2.422767124162E-01
      8 F  15 P     4.145603286047E-01  8.462707092907E-02  2.577232875838E-01
      9 T  15 P    -4.068519890744E-01 -9.764787422999E-02  2.430597225610E-01
     10 F  15 P     4.068519890744E-01  9.764787422999E-02 -2.569402774390E-01
     11 F  15 P    -9.314801092556E-02  4.023521257700E-01 -2.569402774390E-01
     12 F  15 P     9.314801092556E-02 -4.023521257700E-01  2.430597225610E-01
     13 T  15 P    -3.074580729629E-01  7.843971311997E-02  7.869717496608E-05
     14 F  15 P     3.074580729629E-01 -7.843971311997E-02 -4.999213028250E-01
     15 F  15 P    -1.925419270371E-01 -4.215602868800E-01 -4.999213028250E-01
     16 F  15 P     1.925419270371E-01  4.215602868800E-01  7.869717496608E-05
     17 T  15 P    -3.089534211988E-01  5.631963269458E-02  4.998688695406E-01
     18 F  15 P     3.089534211988E-01 -5.631963269458E-02 -1.311304594368E-04
     19 F  15 P    -1.910465788012E-01 -4.436803673054E-01 -1.311304594368E-04
     20 F  15 P     1.910465788012E-01  4.436803673054E-01  4.998688695406E-01
     21 T  15 P    -3.712303945253E-01  3.912890243886E-01  1.602386940980E-02
     22 F  15 P     3.712303945253E-01 -3.912890243886E-01 -4.839761305902E-01
     23 F  15 P    -1.287696054747E-01 -1.087109756114E-01 -4.839761305902E-01
     24 F  15 P     1.287696054747E-01  1.087109756114E-01  1.602386940980E-02

 T = ATOM BELONGING TO THE ASYMMETRIC UNIT

 TOTAL ENERGY(DFT)(AU)( 13) -6.8551939641247E+03     DE (AU)   -6.052E-05

 UPDATED TRUST RADIUS     0.500E+00

 SYMMETRY ALLOWED FORCES  (COORDINATE, FORCE)

    1  5.6633375E-04    2  2.1031065E-04    3 -9.7084369E-04    4 -2.0491901E-04
    5 -2.1288495E-05    6 -2.8204616E-04    7  2.1914602E-04    8 -8.2248700E-05
    9 -3.2101692E-04   10 -4.1811225E-04   11 -7.0077031E-06   12 -4.9944302E-05
   13 -4.2231294E-05   14 -1.5973089E-04   15 -3.5866038E-04   16  8.6240332E-05
   17  5.8570224E-04   18  2.6207311E-04   19 -1.0849682E-05   20 -1.2143321E-04

 GRADIENT NORM     0.001534  GRADIENT THRESHOLD     0.500000

 EIGENVALUES OF THE ESTIMATED HESSIAN
  0.1384E-01  0.1884E-01  0.3193E-01  0.4036E-01  0.4332E-01  0.5036E-01
  0.7524E-01  0.7689E-01  0.9295E-01  0.1089      0.1273      0.1514    
  0.1847      0.2542      0.2713      0.3137      0.3190      0.3486    
  0.3817      0.4651    

 PREDICTED ENERGY CHANGE    -0.205E-04

 MAX GRADIENT      0.000971  THRESHOLD              0.000045 CONVERGED NO
 RMS GRADIENT      0.000343  THRESHOLD              0.000030 CONVERGED NO
 MAX DISPLAC.      0.019414  THRESHOLD              0.000180 CONVERGED NO
 RMS DISPLAC.      0.007477  THRESHOLD              0.000120 CONVERGED NO
 TTTTTTTTTTTTTTTTTTTTTTTTTTTTTT OPTI        TELAPSE      395.93 TCPU      390.49
 *******************************************************************************
 COORDINATE AND CELL OPTIMIZATION - POINT    5
 *******************************************************************************
 LATTICE PARAMETERS (ANGSTROMS AND DEGREES) - BOHR = 0.5291772083 ANGSTROM
 PRIMITIVE CELL - CENTRING CODE 1/0 VOLUME=   459.100499 - DENSITY  2.342 g/cm^3
         A              B              C           ALPHA      BETA       GAMMA 
    10.48176572     6.63422442     6.60211611    90.000000  90.000000  90.000000
 *******************************************************************************
 ATOMS IN THE ASYMMETRIC UNIT    6 - ATOMS IN THE UNIT CELL:   24
     ATOM                 X/A                 Y/B                 Z/C    
 *******************************************************************************
      1 T   3 LI   -4.206204419834E-01  4.562271347700E-01  3.856095288041E-01
      2 F   3 LI    4.206204419834E-01 -4.562271347700E-01 -1.143904711959E-01
      3 F   3 LI   -7.937955801663E-02 -4.377286522998E-02 -1.143904711959E-01
      4 F   3 LI    7.937955801663E-02  4.377286522998E-02  3.856095288041E-01
      5 T  15 P    -8.540274416185E-02  4.156975524596E-01  2.578367871627E-01
      6 F  15 P     8.540274416185E-02 -4.156975524596E-01 -2.421632128373E-01
      7 F  15 P    -4.145972558382E-01 -8.430244754040E-02 -2.421632128373E-01
      8 F  15 P     4.145972558382E-01  8.430244754041E-02  2.578367871627E-01
      9 T  15 P    -4.066988647811E-01 -9.761081954306E-02  2.432027950169E-01
     10 F  15 P     4.066988647811E-01  9.761081954306E-02 -2.567972049831E-01
     11 F  15 P    -9.330113521891E-02  4.023891804569E-01 -2.567972049831E-01
     12 F  15 P     9.330113521891E-02 -4.023891804569E-01  2.432027950169E-01
     13 T  15 P    -3.076571084799E-01  7.878060631415E-02  2.194126872815E-04
     14 F  15 P     3.076571084799E-01 -7.878060631415E-02 -4.997805873127E-01
     15 F  15 P    -1.923428915201E-01 -4.212193936858E-01 -4.997805873127E-01
     16 F  15 P     1.923428915201E-01  4.212193936858E-01  2.194126872815E-04
     17 T  15 P    -3.090018291894E-01  5.659425987978E-02  4.999798761855E-01
     18 F  15 P     3.090018291894E-01 -5.659425987978E-02 -2.012381450505E-05
     19 F  15 P    -1.909981708106E-01 -4.434057401202E-01 -2.012381450505E-05
     20 F  15 P     1.909981708106E-01  4.434057401202E-01  4.999798761855E-01
     21 T  15 P    -3.711949974792E-01  3.917568123678E-01  1.623160014342E-02
     22 F  15 P     3.711949974792E-01 -3.917568123678E-01 -4.837683998566E-01
     23 F  15 P    -1.288050025208E-01 -1.082431876322E-01 -4.837683998566E-01
     24 F  15 P     1.288050025208E-01  1.082431876322E-01  1.623160014342E-02

 T = ATOM BELONGING TO THE ASYMMETRIC UNIT

 TOTAL ENERGY(DFT)(AU)( 13) -6.8551939958389E+03     DE (AU)   -3.171E-05

 UPDATED TRUST RADIUS     0.500E+00

 SYMMETRY ALLOWED FORCES  (COORDINATE, FORCE)

    1  2.6804385E-04    2  3.8079427E-04    3 -3.0525949E-04    4 -1.1468410E-04
    5 -6.0602286E-05    6 -1.0609487E-04    7 -9.9042960E-05    8  7.0047047E-05
    9 -1.8025504E-04   10  2.1191306E-04   11 -5.8637143E-05   12  1.4646704E-05
   13 -6.5762384E-05   14 -7.4808557E-05   15 -3.2108564E-05   16 -3.2409585E-04
   17  3.0231195E-04   18  1.7065873E-04   19 -2.9205916E-05   20 -2.7783436E-04

 GRADIENT NORM     0.000865  GRADIENT THRESHOLD     0.500000

 EIGENVALUES OF THE ESTIMATED HESSIAN
  0.1371E-01  0.1467E-01  0.3265E-01  0.3426E-01  0.4050E-01  0.5013E-01
  0.7164E-01  0.8389E-01  0.9252E-01  0.1098      0.1274      0.1515    
  0.1817      0.2545      0.2705      0.3139      0.3191      0.3493    
  0.3937      0.4642    

 PREDICTED ENERGY CHANGE    -0.785E-05

 MAX GRADIENT      0.000381  THRESHOLD              0.000045 CONVERGED NO
 RMS GRADIENT      0.000193  THRESHOLD              0.000030 CONVERGED NO
 MAX DISPLAC.      0.013817  THRESHOLD              0.000180 CONVERGED NO
 RMS DISPLAC.      0.006038  THRESHOLD              0.000120 CONVERGED NO
 TTTTTTTTTTTTTTTTTTTTTTTTTTTTTT OPTI        TELAPSE      487.81 TCPU      481.73
 *******************************************************************************
 COORDINATE AND CELL OPTIMIZATION - POINT    6
 *******************************************************************************
 LATTICE PARAMETERS (ANGSTROMS AND DEGREES) - BOHR = 0.5291772083 ANGSTROM
 PRIMITIVE CELL - CENTRING CODE 1/0 VOLUME=   459.256794 - DENSITY  2.341 g/cm^3
         A              B              C           ALPHA      BETA       GAMMA 
    10.48287835     6.63318264     6.60469988    90.000000  90.000000  90.000000
 *******************************************************************************
 ATOMS IN THE ASYMMETRIC UNIT    6 - ATOMS IN THE UNIT CELL:   24
     ATOM                 X/A                 Y/B                 Z/C    
 *******************************************************************************
      1 T   3 LI   -4.204027668529E-01  4.567163639531E-01  3.850999432634E-01
      2 F   3 LI    4.204027668529E-01 -4.567163639531E-01 -1.149000567366E-01
      3 F   3 LI   -7.959723314706E-02 -4.328363604691E-02 -1.149000567366E-01
      4 F   3 LI    7.959723314706E-02  4.328363604691E-02  3.850999432634E-01
      5 T  15 P    -8.545600181614E-02  4.158713419543E-01  2.579226067748E-01
      6 F  15 P     8.545600181614E-02 -4.158713419543E-01 -2.420773932252E-01
      7 F  15 P    -4.145439981839E-01 -8.412865804573E-02 -2.420773932252E-01
      8 F  15 P     4.145439981839E-01  8.412865804573E-02  2.579226067748E-01
      9 T  15 P    -4.066195940825E-01 -9.748058657231E-02  2.432986023057E-01
     10 F  15 P     4.066195940825E-01  9.748058657231E-02 -2.567013976943E-01
     11 F  15 P    -9.338040591751E-02  4.025194134277E-01 -2.567013976943E-01
     12 F  15 P     9.338040591751E-02 -4.025194134277E-01  2.432986023057E-01
     13 T  15 P    -3.077338484996E-01  7.908399901510E-02  3.353444974258E-04
     14 F  15 P     3.077338484996E-01 -7.908399901510E-02 -4.996646555026E-01
     15 F  15 P    -1.922661515004E-01 -4.209160009849E-01 -4.996646555026E-01
     16 F  15 P     1.922661515004E-01  4.209160009849E-01  3.353444974258E-04
     17 T  15 P    -3.090192715019E-01  5.685466479115E-02 -4.999296455979E-01
     18 F  15 P     3.090192715019E-01 -5.685466479115E-02  7.035440209481E-05
     19 F  15 P    -1.909807284981E-01 -4.431453352088E-01  7.035440209481E-05
     20 F  15 P     1.909807284981E-01  4.431453352088E-01 -4.999296455979E-01
     21 T  15 P    -3.712287698081E-01  3.921391144114E-01  1.635314875652E-02
     22 F  15 P     3.712287698081E-01 -3.921391144114E-01 -4.836468512435E-01
     23 F  15 P    -1.287712301919E-01 -1.078608855886E-01 -4.836468512435E-01
     24 F  15 P     1.287712301919E-01  1.078608855886E-01  1.635314875652E-02

 T = ATOM BELONGING TO THE ASYMMETRIC UNIT

 TOTAL ENERGY(DFT)(AU)( 13) -6.8551940075723E+03     DE (AU)   -1.173E-05

 UPDATED TRUST RADIUS     0.500E+00

 SYMMETRY ALLOWED FORCES  (COORDINATE, FORCE)

    1  1.0500169E-04    2  4.1920149E-04    3  4.0760035E-05    4 -6.1707592E-05
    5 -7.6524290E-05    6 -2.6104960E-05    7 -1.8670359E-04    8  1.1362531E-04
    9 -2.4274434E-05   10  3.0038865E-04   11 -1.5564728E-04   12  5.5736953E-05
   13 -6.9531487E-05   14  1.3866440E-05   15  1.1453841E-04   16 -3.3867508E-04
   17  1.0191093E-04   18 -5.5495030E-06   19 -2.2027250E-05   20 -1.5185620E-04

 GRADIENT NORM     0.000729  GRADIENT THRESHOLD     0.500000

 EIGENVALUES OF THE ESTIMATED HESSIAN
  0.1025E-01  0.1392E-01  0.3048E-01  0.3443E-01  0.4076E-01  0.5199E-01
  0.6748E-01  0.8295E-01  0.9162E-01  0.1092      0.1287      0.1516    
  0.1885      0.2555      0.2693      0.3134      0.3183      0.3493    
  0.3848      0.4616    

 PREDICTED ENERGY CHANGE    -0.433E-05

 MAX GRADIENT      0.000419  THRESHOLD              0.000045 CONVERGED NO
 RMS GRADIENT      0.000163  THRESHOLD              0.000030 CONVERGED NO
 MAX DISPLAC.      0.014498  THRESHOLD              0.000180 CONVERGED NO
 RMS DISPLAC.      0.005092  THRESHOLD              0.000120 CONVERGED NO
 TTTTTTTTTTTTTTTTTTTTTTTTTTTTTT OPTI        TELAPSE      579.18 TCPU      572.47
 *******************************************************************************
 COORDINATE AND CELL OPTIMIZATION - POINT    7
 *******************************************************************************
 LATTICE PARAMETERS (ANGSTROMS AND DEGREES) - BOHR = 0.5291772083 ANGSTROM
 PRIMITIVE CELL - CENTRING CODE 1/0 VOLUME=   459.246802 - DENSITY  2.341 g/cm^3
         A              B              C           ALPHA      BETA       GAMMA 
    10.48213413     6.63183100     6.60637128    90.000000  90.000000  90.000000
 *******************************************************************************
 ATOMS IN THE ASYMMETRIC UNIT    6 - ATOMS IN THE UNIT CELL:   24
     ATOM                 X/A                 Y/B                 Z/C    
 *******************************************************************************
      1 T   3 LI   -4.202613542095E-01  4.572985444203E-01  3.847609158177E-01
      2 F   3 LI    4.202613542095E-01 -4.572985444203E-01 -1.152390841823E-01
      3 F   3 LI   -7.973864579055E-02 -4.270145557967E-02 -1.152390841823E-01
      4 F   3 LI    7.973864579055E-02  4.270145557967E-02  3.847609158177E-01
      5 T  15 P    -8.555972037986E-02  4.159113743997E-01  2.579806403352E-01
      6 F  15 P     8.555972037986E-02 -4.159113743997E-01 -2.420193596648E-01
      7 F  15 P    -4.144402796201E-01 -8.408862560032E-02 -2.420193596648E-01
      8 F  15 P     4.144402796201E-01  8.408862560032E-02  2.579806403352E-01
      9 T  15 P    -4.066052915008E-01 -9.731267803196E-02  2.433799399255E-01
     10 F  15 P     4.066052915008E-01  9.731267803196E-02 -2.566200600745E-01
     11 F  15 P    -9.339470849916E-02  4.026873219680E-01 -2.566200600745E-01
     12 F  15 P     9.339470849916E-02 -4.026873219680E-01  2.433799399255E-01
     13 T  15 P    -3.077399608466E-01  7.930773245625E-02  4.358207635759E-04
     14 F  15 P     3.077399608466E-01 -7.930773245625E-02 -4.995641792364E-01
     15 F  15 P    -1.922600391534E-01 -4.206922675438E-01 -4.995641792364E-01
     16 F  15 P     1.922600391534E-01  4.206922675438E-01  4.358207635759E-04
     17 T  15 P    -3.090121163415E-01  5.708391222620E-02 -4.998644453891E-01
     18 F  15 P     3.090121163415E-01 -5.708391222620E-02  1.355546108824E-04
     19 F  15 P    -1.909878836585E-01 -4.429160877738E-01  1.355546108824E-04
     20 F  15 P     1.909878836585E-01  4.429160877738E-01 -4.998644453891E-01
     21 T  15 P    -3.713005675874E-01  3.924049169704E-01  1.638712854715E-02
     22 F  15 P     3.713005675874E-01 -3.924049169704E-01 -4.836128714529E-01
     23 F  15 P    -1.286994324126E-01 -1.075950830296E-01 -4.836128714529E-01
     24 F  15 P     1.286994324126E-01  1.075950830296E-01  1.638712854715E-02

 T = ATOM BELONGING TO THE ASYMMETRIC UNIT

 TOTAL ENERGY(DFT)(AU)( 13) -6.8551940142098E+03     DE (AU)   -6.638E-06

 UPDATED TRUST RADIUS     0.500E+00

 SYMMETRY ALLOWED FORCES  (COORDINATE, FORCE)

    1  2.6931964E-05    2  3.7162736E-04    3  1.8061882E-04    4 -2.1126397E-05
    5 -5.3092866E-05    6 -1.1272560E-06    7 -1.4283711E-04    8  8.4268478E-05
    9  7.3600208E-05   10  1.5331693E-04   11 -2.1315949E-04   12  5.9002623E-05
   13 -2.7979185E-05   14  7.6408220E-05   15  1.7993450E-04   16 -1.4299713E-04
   17 -3.6199605E-05   18 -8.0506423E-05   19 -4.5539445E-06   20 -3.3237607E-05

 GRADIENT NORM     0.000590  GRADIENT THRESHOLD     0.500000

 EIGENVALUES OF THE ESTIMATED HESSIAN
  0.7491E-02  0.1395E-01  0.2809E-01  0.3418E-01  0.4083E-01  0.5102E-01
  0.5962E-01  0.7846E-01  0.9120E-01  0.1084      0.1294      0.1535    
  0.1918      0.2556      0.2697      0.3108      0.3173      0.3492    
  0.3770      0.4581    

 PREDICTED ENERGY CHANGE    -0.369E-05

 MAX GRADIENT      0.000372  THRESHOLD              0.000045 CONVERGED NO
 RMS GRADIENT      0.000132  THRESHOLD              0.000030 CONVERGED NO
 MAX DISPLAC.      0.018265  THRESHOLD              0.000180 CONVERGED NO
 RMS DISPLAC.      0.005371  THRESHOLD              0.000120 CONVERGED NO
 TTTTTTTTTTTTTTTTTTTTTTTTTTTTTT OPTI        TELAPSE      671.39 TCPU      664.06
 *******************************************************************************
 COORDINATE AND CELL OPTIMIZATION - POINT    8
 *******************************************************************************
 LATTICE PARAMETERS (ANGSTROMS AND DEGREES) - BOHR = 0.5291772083 ANGSTROM
 PRIMITIVE CELL - CENTRING CODE 1/0 VOLUME=   459.135010 - DENSITY  2.342 g/cm^3
[...]
            Z     0.0036    0.0026    0.0037    0.0002    0.0012    0.0007
 AT.  24 P  X     0.0137    0.0001   -0.0030   -0.0142   -0.0174    0.0061
            Y     0.0041    0.0001    0.0026    0.0156    0.0272   -0.0050
            Z    -0.0036    0.0026    0.0037   -0.0002   -0.0012    0.0007

 FREQ(CM**-1)    455.40    457.29    457.93    458.72    459.37    461.47

 AT.   1 LI X    -0.0069   -0.0036   -0.0069    0.0055    0.0272   -0.0093
            Y     0.0043    0.0014   -0.0009   -0.0061   -0.0058    0.0028
            Z     0.0058    0.0032    0.0036   -0.0100   -0.0186    0.0062
 AT.   2 LI X     0.0069   -0.0036    0.0069   -0.0055    0.0272   -0.0093
            Y    -0.0043    0.0014    0.0009    0.0061   -0.0058    0.0028
            Z     0.0058   -0.0032    0.0036   -0.0100    0.0186   -0.0062
 AT.   3 LI X     0.0069   -0.0036    0.0069    0.0055   -0.0272    0.0093
            Y     0.0043   -0.0014   -0.0009    0.0061   -0.0058    0.0028
            Z     0.0058   -0.0032    0.0036    0.0100   -0.0186    0.0062
 AT.   4 LI X    -0.0069   -0.0036   -0.0069   -0.0055   -0.0272    0.0093
            Y    -0.0043   -0.0014    0.0009   -0.0061   -0.0058    0.0028
            Z     0.0058    0.0032    0.0036    0.0100    0.0186   -0.0062
 AT.   5 P  X    -0.0042    0.0278    0.0059   -0.0154    0.0012   -0.0298
            Y     0.0054    0.0044   -0.0106    0.0008   -0.0082   -0.0035
            Z    -0.0128    0.0043    0.0155   -0.0123   -0.0100   -0.0045
 AT.   6 P  X     0.0042    0.0278   -0.0059    0.0154    0.0012   -0.0298
            Y    -0.0054    0.0044    0.0106   -0.0008   -0.0082   -0.0035
            Z    -0.0128   -0.0043    0.0155   -0.0123    0.0100    0.0045
 AT.   7 P  X     0.0042    0.0278   -0.0059   -0.0154   -0.0012    0.0298
            Y     0.0054   -0.0044   -0.0106   -0.0008   -0.0082   -0.0035
            Z    -0.0128   -0.0043    0.0155    0.0123   -0.0100   -0.0045
 AT.   8 P  X    -0.0042    0.0278    0.0059    0.0154   -0.0012    0.0298
            Y    -0.0054   -0.0044    0.0106    0.0008   -0.0082   -0.0035
            Z    -0.0128    0.0043    0.0155    0.0123    0.0100    0.0045
 AT.   9 P  X    -0.0074   -0.0255    0.0058   -0.0108   -0.0159   -0.0204
            Y    -0.0094    0.0063    0.0016    0.0045   -0.0036    0.0093
            Z    -0.0147   -0.0062    0.0019   -0.0034    0.0095   -0.0063
 AT.  10 P  X     0.0074   -0.0255   -0.0058    0.0108   -0.0159   -0.0204
            Y     0.0094    0.0063   -0.0016   -0.0045   -0.0036    0.0093
            Z    -0.0147    0.0062    0.0019   -0.0034   -0.0095    0.0063
 AT.  11 P  X     0.0074   -0.0255   -0.0058   -0.0108    0.0159    0.0204
            Y    -0.0094   -0.0063    0.0016   -0.0045   -0.0036    0.0093
            Z    -0.0147    0.0062    0.0019    0.0034    0.0095   -0.0063
 AT.  12 P  X    -0.0074   -0.0255    0.0058    0.0108    0.0159    0.0204
            Y     0.0094   -0.0063   -0.0016    0.0045   -0.0036    0.0093
            Z    -0.0147   -0.0062    0.0019    0.0034   -0.0095    0.0063
 AT.  13 P  X    -0.0003   -0.0024   -0.0033    0.0057    0.0180   -0.0090
            Y     0.0070    0.0012    0.0068   -0.0051    0.0150    0.0029
            Z     0.0010   -0.0114    0.0036   -0.0013   -0.0047   -0.0091
 AT.  14 P  X     0.0003   -0.0024    0.0033   -0.0057    0.0180   -0.0090
            Y    -0.0070    0.0012   -0.0068    0.0051    0.0150    0.0029
            Z     0.0010    0.0114    0.0036   -0.0013    0.0047    0.0091
 AT.  15 P  X     0.0003   -0.0024    0.0033    0.0057   -0.0180    0.0090
            Y     0.0070   -0.0012    0.0068    0.0051    0.0150    0.0029
            Z     0.0010    0.0114    0.0036    0.0013   -0.0047   -0.0091
 AT.  16 P  X    -0.0003   -0.0024   -0.0033   -0.0057   -0.0180    0.0090
            Y    -0.0070   -0.0012   -0.0068   -0.0051    0.0150    0.0029
            Z     0.0010   -0.0114    0.0036    0.0013    0.0047    0.0091
 AT.  17 P  X    -0.0142    0.0022   -0.0153   -0.0158   -0.0133   -0.0001
            Y     0.0102   -0.0024    0.0169    0.0193    0.0062   -0.0036
            Z     0.0276    0.0200   -0.0216   -0.0095    0.0032    0.0178
 AT.  18 P  X     0.0142    0.0022    0.0153    0.0158   -0.0133   -0.0001
            Y    -0.0102   -0.0024   -0.0169   -0.0193    0.0062   -0.0036
            Z     0.0276   -0.0200   -0.0216   -0.0095   -0.0032   -0.0178
 AT.  19 P  X     0.0142    0.0022    0.0153   -0.0158    0.0133    0.0001
            Y     0.0102    0.0024    0.0169   -0.0193    0.0062   -0.0036
            Z     0.0276   -0.0200   -0.0216    0.0095    0.0032    0.0178
 AT.  20 P  X    -0.0142    0.0022   -0.0153    0.0158    0.0133    0.0001
            Y    -0.0102    0.0024   -0.0169    0.0193    0.0062   -0.0036
            Z     0.0276    0.0200   -0.0216    0.0095   -0.0032   -0.0178
 AT.  21 P  X    -0.0141   -0.0014   -0.0151    0.0196   -0.0217    0.0089
            Y    -0.0148   -0.0055   -0.0199    0.0196   -0.0083   -0.0058
            Z    -0.0024    0.0017   -0.0002    0.0015    0.0021    0.0007
 AT.  22 P  X     0.0141   -0.0014    0.0151   -0.0196   -0.0217    0.0089
            Y     0.0148   -0.0055    0.0199   -0.0196   -0.0083   -0.0058
            Z    -0.0024   -0.0017   -0.0002    0.0015   -0.0021   -0.0007
 AT.  23 P  X     0.0141   -0.0014    0.0151    0.0196    0.0217   -0.0089
            Y    -0.0148    0.0055   -0.0199   -0.0196   -0.0083   -0.0058
            Z    -0.0024   -0.0017   -0.0002   -0.0015    0.0021    0.0007
 AT.  24 P  X    -0.0141   -0.0014   -0.0151   -0.0196    0.0217   -0.0089
            Y     0.0148    0.0055    0.0199    0.0196   -0.0083   -0.0058
            Z    -0.0024    0.0017   -0.0002   -0.0015   -0.0021   -0.0007

 FREQ(CM**-1)    467.27    473.79    480.41    482.71    483.50    486.88

 AT.   1 LI X     0.0203   -0.0043    0.0007    0.0002    0.0079    0.0034
            Y    -0.0031   -0.0038   -0.0006   -0.0036   -0.0097    0.0010
            Z    -0.0116   -0.0046   -0.0015   -0.0003   -0.0168    0.0003
 AT.   2 LI X     0.0203    0.0043   -0.0007   -0.0002    0.0079    0.0034
            Y    -0.0031    0.0038    0.0006    0.0036   -0.0097    0.0010
            Z     0.0116   -0.0046   -0.0015   -0.0003    0.0168   -0.0003
 AT.   3 LI X    -0.0203    0.0043   -0.0007    0.0002    0.0079   -0.0034
            Y    -0.0031   -0.0038   -0.0006    0.0036    0.0097    0.0010
            Z    -0.0116   -0.0046   -0.0015    0.0003    0.0168    0.0003
 AT.   4 LI X    -0.0203   -0.0043    0.0007   -0.0002    0.0079   -0.0034
            Y    -0.0031    0.0038    0.0006   -0.0036    0.0097    0.0010
            Z     0.0116   -0.0046   -0.0015    0.0003   -0.0168   -0.0003
 AT.   5 P  X    -0.0003   -0.0227    0.0168   -0.0230   -0.0016    0.0063
            Y    -0.0070   -0.0046    0.0094   -0.0149   -0.0017    0.0156
            Z     0.0066   -0.0112   -0.0160    0.0071   -0.0067   -0.0180
 AT.   6 P  X    -0.0003    0.0227   -0.0168    0.0230   -0.0016    0.0063
            Y    -0.0070    0.0046   -0.0094    0.0149   -0.0017    0.0156
            Z    -0.0066   -0.0112   -0.0160    0.0071    0.0067    0.0180
 AT.   7 P  X     0.0003    0.0227   -0.0168   -0.0230   -0.0016   -0.0063
            Y    -0.0070   -0.0046    0.0094    0.0149    0.0017    0.0156
            Z     0.0066   -0.0112   -0.0160   -0.0071    0.0067   -0.0180
 AT.   8 P  X     0.0003   -0.0227    0.0168    0.0230   -0.0016   -0.0063
            Y    -0.0070    0.0046   -0.0094   -0.0149    0.0017    0.0156
            Z    -0.0066   -0.0112   -0.0160   -0.0071   -0.0067    0.0180
 AT.   9 P  X    -0.0144    0.0229   -0.0133   -0.0199   -0.0012    0.0073
            Y    -0.0041   -0.0037    0.0134    0.0186   -0.0025   -0.0152
            Z    -0.0058    0.0110    0.0181    0.0087   -0.0087   -0.0177
 AT.  10 P  X    -0.0144   -0.0229    0.0133    0.0199   -0.0012    0.0073
            Y    -0.0041    0.0037   -0.0134   -0.0186   -0.0025   -0.0152
            Z     0.0058    0.0110    0.0181    0.0087    0.0087    0.0177
 AT.  11 P  X     0.0144   -0.0229    0.0133   -0.0199   -0.0012   -0.0073
            Y    -0.0041   -0.0037    0.0134   -0.0186    0.0025   -0.0152
            Z    -0.0058    0.0110    0.0181   -0.0087    0.0087   -0.0177
 AT.  12 P  X     0.0144    0.0229   -0.0133    0.0199   -0.0012   -0.0073
            Y    -0.0041    0.0037   -0.0134    0.0186    0.0025   -0.0152
            Z     0.0058    0.0110    0.0181   -0.0087   -0.0087    0.0177
 AT.  13 P  X     0.0122   -0.0135    0.0072    0.0091    0.0071    0.0011
            Y    -0.0190    0.0106    0.0195    0.0044   -0.0240   -0.0032
            Z    -0.0064    0.0016    0.0022    0.0019   -0.0018    0.0055
 AT.  14 P  X     0.0122    0.0135   -0.0072   -0.0091    0.0071    0.0011
            Y    -0.0190   -0.0106   -0.0195   -0.0044   -0.0240   -0.0032
            Z     0.0064    0.0016    0.0022    0.0019    0.0018   -0.0055
 AT.  15 P  X    -0.0122    0.0135   -0.0072    0.0091    0.0071   -0.0011
            Y    -0.0190    0.0106    0.0195   -0.0044    0.0240   -0.0032
            Z    -0.0064    0.0016    0.0022   -0.0019    0.0018    0.0055
 AT.  16 P  X    -0.0122   -0.0135    0.0072   -0.0091    0.0071   -0.0011
            Y    -0.0190   -0.0106   -0.0195    0.0044    0.0240   -0.0032
            Z     0.0064    0.0016    0.0022   -0.0019   -0.0018   -0.0055
 AT.  17 P  X     0.0170   -0.0099   -0.0041    0.0087    0.0180   -0.0031
            Y     0.0042   -0.0136   -0.0123   -0.0090    0.0021    0.0011
            Z     0.0043   -0.0004   -0.0042   -0.0037    0.0033    0.0265
 AT.  18 P  X     0.0170    0.0099    0.0041   -0.0087    0.0180   -0.0031
            Y     0.0042    0.0136    0.0123    0.0090    0.0021    0.0011
            Z    -0.0043   -0.0004   -0.0042   -0.0037   -0.0033   -0.0265
 AT.  19 P  X    -0.0170    0.0099    0.0041    0.0087    0.0180    0.0031
            Y     0.0042   -0.0136   -0.0123    0.0090   -0.0021    0.0011
            Z     0.0043   -0.0004   -0.0042    0.0037   -0.0033    0.0265
 AT.  20 P  X    -0.0170   -0.0099   -0.0041   -0.0087    0.0180    0.0031
            Y     0.0042    0.0136    0.0123   -0.0090   -0.0021    0.0011
            Z    -0.0043   -0.0004   -0.0042    0.0037    0.0033   -0.0265
 AT.  21 P  X    -0.0038    0.0079   -0.0013   -0.0049   -0.0241   -0.0043
            Y     0.0266   -0.0088   -0.0096   -0.0095    0.0149    0.0015
            Z     0.0019    0.0000    0.0003   -0.0004    0.0019   -0.0036
 AT.  22 P  X    -0.0038   -0.0079    0.0013    0.0049   -0.0241   -0.0043
            Y     0.0266    0.0088    0.0096    0.0095    0.0149    0.0015
            Z    -0.0019    0.0000    0.0003   -0.0004   -0.0019    0.0036
 AT.  23 P  X     0.0038   -0.0079    0.0013   -0.0049   -0.0241    0.0043
            Y     0.0266   -0.0088   -0.0096    0.0095   -0.0149    0.0015
            Z     0.0019    0.0000    0.0003    0.0004   -0.0019   -0.0036
 AT.  24 P  X     0.0038    0.0079   -0.0013    0.0049   -0.0241    0.0043
            Y     0.0266    0.0088    0.0096   -0.0095   -0.0149    0.0015
            Z    -0.0019    0.0000    0.0003    0.0004    0.0019    0.0036

 FREQ(CM**-1)    488.75    497.58    509.54    510.89    517.30    520.49

 AT.   1 LI X     0.0018   -0.0204   -0.0017   -0.0087   -0.0053   -0.0048
            Y    -0.0027    0.0018    0.0010    0.0030   -0.0012    0.0056
            Z     0.0011    0.0066    0.0018    0.0094    0.0024    0.0056
 AT.   2 LI X     0.0018    0.0204   -0.0017   -0.0087    0.0053    0.0048
            Y    -0.0027   -0.0018    0.0010    0.0030    0.0012   -0.0056
            Z    -0.0011    0.0066   -0.0018   -0.0094    0.0024    0.0056
 AT.   3 LI X     0.0018   -0.0204   -0.0017    0.0087   -0.0053    0.0048
            Y     0.0027   -0.0018   -0.0010    0.0030    0.0012    0.0056
            Z    -0.0011   -0.0066   -0.0018    0.0094   -0.0024    0.0056
 AT.   4 LI X     0.0018    0.0204   -0.0017    0.0087    0.0053   -0.0048
            Y     0.0027    0.0018   -0.0010    0.0030   -0.0012   -0.0056
            Z     0.0011   -0.0066    0.0018   -0.0094   -0.0024    0.0056
 AT.   5 P  X     0.0050   -0.0034    0.0153    0.0120    0.0085   -0.0047
            Y     0.0176    0.0022   -0.0086   -0.0095   -0.0154    0.0149
            Z    -0.0187   -0.0130   -0.0014    0.0005    0.0007   -0.0006
 AT.   6 P  X     0.0050    0.0034    0.0153    0.0120   -0.0085    0.0047
            Y     0.0176   -0.0022   -0.0086   -0.0095    0.0154   -0.0149
            Z     0.0187   -0.0130    0.0014   -0.0005    0.0007   -0.0006
 AT.   7 P  X     0.0050   -0.0034    0.0153   -0.0120    0.0085    0.0047
            Y    -0.0176   -0.0022    0.0086   -0.0095    0.0154    0.0149
            Z     0.0187    0.0130    0.0014    0.0005   -0.0007   -0.0006
 AT.   8 P  X     0.0050    0.0034    0.0153   -0.0120   -0.0085   -0.0047
            Y    -0.0176    0.0022    0.0086   -0.0095   -0.0154   -0.0149
            Z    -0.0187    0.0130   -0.0014   -0.0005   -0.0007   -0.0006
 AT.   9 P  X    -0.0101   -0.0058    0.0117   -0.0089    0.0092    0.0054
            Y     0.0146   -0.0045    0.0155   -0.0140    0.0171    0.0165
            Z     0.0160   -0.0128    0.0042   -0.0035    0.0024    0.0022
 AT.  10 P  X    -0.0101    0.0058    0.0117   -0.0089   -0.0092   -0.0054
            Y     0.0146    0.0045    0.0155   -0.0140   -0.0171   -0.0165
            Z    -0.0160   -0.0128   -0.0042    0.0035    0.0024    0.0022
 AT.  11 P  X    -0.0101   -0.0058    0.0117    0.0089    0.0092   -0.0054
            Y    -0.0146    0.0045   -0.0155   -0.0140   -0.0171    0.0165
            Z    -0.0160    0.0128   -0.0042   -0.0035   -0.0024    0.0022
 AT.  12 P  X    -0.0101    0.0058    0.0117    0.0089   -0.0092    0.0054
            Y    -0.0146   -0.0045   -0.0155   -0.0140    0.0171   -0.0165
            Z     0.0160    0.0128    0.0042    0.0035   -0.0024    0.0022
 AT.  13 P  X     0.0019    0.0113   -0.0106    0.0035   -0.0029    0.0010
            Y     0.0021   -0.0160   -0.0209    0.0215   -0.0263   -0.0218
            Z    -0.0072   -0.0029   -0.0008    0.0010   -0.0001   -0.0007
 AT.  14 P  X     0.0019   -0.0113   -0.0106    0.0035    0.0029   -0.0010
            Y     0.0021    0.0160   -0.0209    0.0215    0.0263    0.0218
            Z     0.0072   -0.0029    0.0008   -0.0010   -0.0001   -0.0007
 AT.  15 P  X     0.0019    0.0113   -0.0106   -0.0035   -0.0029   -0.0010
            Y    -0.0021    0.0160    0.0209    0.0215    0.0263   -0.0218
            Z     0.0072    0.0029    0.0008    0.0010    0.0001   -0.0007
 AT.  16 P  X     0.0019   -0.0113   -0.0106   -0.0035    0.0029    0.0010
            Y    -0.0021   -0.0160    0.0209    0.0215   -0.0263    0.0218
            Z    -0.0072    0.0029   -0.0008   -0.0010    0.0001   -0.0007
 AT.  17 P  X     0.0065    0.0198   -0.0197    0.0216   -0.0113   -0.0188
            Y     0.0012    0.0091   -0.0112    0.0084   -0.0143   -0.0101
            Z    -0.0246    0.0022   -0.0044    0.0026   -0.0017   -0.0019
 AT.  18 P  X     0.0065   -0.0198   -0.0197    0.0216    0.0113    0.0188
            Y     0.0012   -0.0091   -0.0112    0.0084    0.0143    0.0101
            Z     0.0246    0.0022    0.0044   -0.0026   -0.0017   -0.0019
 AT.  19 P  X     0.0065    0.0198   -0.0197   -0.0216   -0.0113    0.0188
            Y    -0.0012   -0.0091    0.0112    0.0084    0.0143   -0.0101
            Z     0.0246   -0.0022    0.0044    0.0026    0.0017   -0.0019
 AT.  20 P  X     0.0065   -0.0198   -0.0197   -0.0216    0.0113   -0.0188
            Y    -0.0012    0.0091    0.0112    0.0084   -0.0143    0.0101
            Z    -0.0246   -0.0022   -0.0044   -0.0026    0.0017   -0.0019
 AT.  21 P  X    -0.0038   -0.0220    0.0037    0.0164   -0.0032   -0.0175
            Y    -0.0021    0.0094    0.0104   -0.0069    0.0113    0.0074
            Z    -0.0016   -0.0007   -0.0003   -0.0011   -0.0004   -0.0003
 AT.  22 P  X    -0.0038    0.0220    0.0037    0.0164    0.0032    0.0175
            Y    -0.0021   -0.0094    0.0104   -0.0069   -0.0113   -0.0074
            Z     0.0016   -0.0007    0.0003    0.0011   -0.0004   -0.0003
 AT.  23 P  X    -0.0038   -0.0220    0.0037   -0.0164   -0.0032    0.0175
            Y     0.0021   -0.0094   -0.0104   -0.0069   -0.0113    0.0074
            Z     0.0016    0.0007    0.0003   -0.0011    0.0004   -0.0003
 AT.  24 P  X    -0.0038    0.0220    0.0037   -0.0164    0.0032   -0.0175
            Y     0.0021    0.0094   -0.0104   -0.0069    0.0113   -0.0074
            Z    -0.0016    0.0007   -0.0003    0.0011    0.0004   -0.0003

 *******************************************************************************

 VIBRATIONAL TEMPERATURES (K) [MODE NUMBER;IRREP]

 TO MODES
    98.4 [   4;A2 ]   114.5 [   5;A1 ]   123.2 [   6;B2 ]   145.6 [   7;B1 ]
   151.1 [   8;A1 ]   152.6 [   9;A2 ]   156.7 [  10;B1 ]   170.4 [  11;A2 ]
   180.3 [  12;B1 ]   187.7 [  13;B2 ]   192.3 [  14;B2 ]   199.2 [  15;A1 ]
   201.7 [  16;B1 ]   218.2 [  17;A2 ]   228.4 [  18;B2 ]   248.3 [  19;A2 ]
   254.8 [  20;A1 ]   258.6 [  21;B2 ]   273.8 [  22;B1 ]   280.4 [  23;A1 ]
   294.5 [  24;A2 ]   297.7 [  25;B1 ]   298.1 [  26;A1 ]   304.9 [  27;A1 ]
   307.0 [  28;A2 ]   311.8 [  29;B2 ]   317.6 [  30;A2 ]   341.3 [  31;A2 ]
   344.9 [  32;B2 ]   347.6 [  33;B2 ]   360.1 [  34;B1 ]   385.2 [  35;A1 ]
   390.0 [  36;B1 ]   446.3 [  37;B1 ]   446.6 [  38;B2 ]   455.5 [  39;A1 ]
   459.2 [  40;A2 ]   542.1 [  41;B1 ]   543.7 [  42;A2 ]   552.0 [  43;A1 ]
   558.3 [  44;B2 ]   601.9 [  45;A1 ]   604.8 [  46;A2 ]   605.4 [  47;B1 ]
   605.6 [  48;B2 ]   614.9 [  49;B2 ]   627.3 [  50;A2 ]   628.5 [  51;A1 ]
   631.8 [  52;B1 ]   641.9 [  53;B2 ]   649.9 [  54;A2 ]   655.2 [  55;A1 ]
   657.9 [  56;B2 ]   658.9 [  57;A1 ]   660.0 [  58;A2 ]   660.9 [  59;B1 ]
   663.9 [  60;B1 ]   672.3 [  61;B1 ]   681.7 [  62;A1 ]   691.2 [  63;A1 ]
   694.5 [  64;A2 ]   695.6 [  65;B2 ]   700.5 [  66;B1 ]   703.2 [  67;B2 ]
   715.9 [  68;A2 ]   733.1 [  69;B2 ]   735.1 [  70;B1 ]   744.3 [  71;A2 ]
   748.9 [  72;A1 ]

 *******************************************************************************

 HARMONIC VIBRATIONAL CONTRIBUTIONS TO THERMODYNAMIC FUNCTIONS AT GIVEN
 TEMPERATURE AND PRESSURE:

 (EL = ELECTRONIC ENERGY
  E0 = ZERO-POINT ENERGY
  ET = THERMAL CONTRIBUTION TO THE VIBRATIONAL ENERGY
  PV = PRESSURE * VOLUME
  TS = TEMPERATURE * ENTROPY)

                          AU/CELL             EV/CELL                 KJ/MOL
 EL            :   -6855.194290997575 -186539.320133826172   -17998310.07459224
 E0            :       0.048810208322       1.328193292494         128.15118389


 *******************************************************************************

 THERMODYNAMIC FUNCTIONS WITH VIBRATIONAL CONTRIBUTIONS

 AT (T =  298.15 K, P =   0.10132500E+00 MPA):

                          AU/CELL             EV/CELL                 KJ/MOL
 ET            :       0.030227024389       0.822519149686          79.36104135
 PV            :       0.000010669887       0.000290342399           0.02801379
 TS            :       0.054607047358       1.485933301999         143.37078263
 ET+PV-TS      :      -0.024369353082      -0.663123809914         -63.98172750
 EL+E0+ET+PV-TS:   -6855.169850142334 -186538.655064343591   -17998245.90513585

 OTHER THERMODYNAMIC FUNCTIONS:

                      mHARTREE/(CELL*K)     mEV/(CELL*K)              J/(MOL*K)
 ENTROPY       :       0.183152934288       4.983844715744         480.86796121
 HEAT CAPACITY :       0.177690693073       4.835209575822         466.52684892

 *******************************************************************************
 TTTTTTTTTTTTTTTTTTTTTTTTTTTTTT END         TELAPSE    10778.30 TCPU    10672.29
 EEEEEEEEEE TERMINATION  DATE 25 07 2023 TIME 20:32:05.4
