         256 PROCESSORS WORKING

         
 *******************************************************************************
 *                                                                             *
 *                               CRYSTAL23                                     *
 *                      public : 1.0.1 - October 2022                          *
 *                       HTTP://WWW.CRYSTAL.UNITO.IT                           *
 *                                                                             *
 *                              MAIN AUTHORS                                   *
 *                                                                             *
 *  R. DOVESI(1,11), V.R. SAUNDERS(2), C. ROETTI(1,11), R. ORLANDO(1,11),      *
 *  C.M. ZICOVICH-WILSON(1,3), F. PASCALE(4), B. CIVALLERI(1,11),              *
 *  K. DOLL(5), N.M. HARRISON(6), I.J. BUSH(7), Ph. D'ARCO(8),                 *
 *  M. LLUNELL(9), M. CAUSA'(10), Y. NOEL(8), L. MASCHIO(1,11), A. ERBA(1,11)  *
 *  M. RE'RAT(14), S. CASASSA(1,11), B.G. SEARLE(2), J.K. DESMARAIS(1)         *
 *                                                                             *
 *        CONTRIBUTIONS TO THE CODE HAVE ALSO BEEN GIVEN BY                    *
 *                                                                             *
 *  M. FERRABONE(1,11), M. DE LA PIERRE(1,11), M. FERRERO(1,11),               *
 *  J. BAIMA(1,11), E. ALBANESE(1,11), M.F. PEINTINGER(12), R. BAST(13),       *
 *  B. KIRTMAN(15), V. LACIVITA(1,11), R. DEMICHELIS(1,16)                     *
 *  G. BRANDEBURG(17), S. SALUSTRO(1,11), G. SANSONE(1,11)                     *
 *  M.T. RUGGIERO(18), L.E. DAGA(1), L. DONA'(1), A. COSSARD(1)                *
 *                                                                             *
 * (1) THEORETICAL CHEMISTRY GROUP - UNIVERSITA' DI TORINO - TORINO (ITALY)    *
 * (2) SCIENTIFIC COMPUTING DEPARTMENT - STFC DARESBURY (UK)                   *
 * (3) UNIVERSIDAD AUTONOMA DEL ESTADO DE MORELOS - CUERNAVACA (MEXICO)        *
 * (4) UNIVERSITE' DE LORRAINE - NANCY (FRANCE)                                *
 * (5) UNIVERSITAET STUTTGART- STUTTGART (GERMANY)                             *
 * (6) IMPERIAL COLLEGE - LONDON (UK)                                          *
 * (7) SCIENTIFIC COMPUTING DEPARTMENT - STFC RAL (UK)                         *
 * (8) UPMC - SORBONNE UNIVERSITES - PARIS (FRANCE)                            *
 * (9) UNIVERSIDAD DE BARCELONA - BARCELONA (SPAIN)                            *
 *(10) UNIVERSITA' DI NAPOLI "FEDERICO II" - NAPOLI (ITALY)                    *
 *(11) NIS - NANOSTRUCTURED INTERFACES AND SURFACES - TORINO (ITALY)           *
 *(12) MPI FUER CHEMISCHE ENERGIEKONVERSION - MUELHEIM AN DER RUHR (GERMANY)   *
 *(13) UNIVERSITY OF TROMSO - TROMSO (NORWAY)                                  *
 *(14) UNIVERSITE' DE PAU ET DES PAYS DE L'ADOUR - PAU (FRANCE)                *
 *(15) UNIVERSITY OF CALIFORNIA SANTA BARBARA - SANTA BARBARA (USA)            *
 *(16) CURTIN UNIVERSITY - PERTH (AUSTRALIA)                                   *
 *(17) UNIVERSITY COLLEGE LONDON - LONDON (UK)                                 *
 *(18) UNIVERSITY OF VERMONT - BURLINGTON (USA)                                *
 *                                                                             *
 *******************************************************************************
 EEEEEEEEEE STARTING  DATE 29 05 2023 TIME 18:04:46.7
 ICSD_CollCode185809.cif                                                         

 CRYSTAL CALCULATION
 (INPUT ACCORDING TO THE INTERNATIONAL TABLES FOR X-RAY CRYSTALLOGRAPHY)
 CRYSTAL FAMILY                       :  MONOCLINIC  
 CRYSTAL CLASS  (GROTH - 1921)        :  MONOCLINIC PRISMATIC                 

 SPACE GROUP (CENTROSYMMETRIC)        :  P 1 21/C 1      

 LATTICE PARAMETERS  (ANGSTROMS AND DEGREES) - CONVENTIONAL CELL
        A           B           C        ALPHA        BETA       GAMMA
     5.76120     5.68410     5.76740    90.00000   111.72100    90.00000


 NUMBER OF IRREDUCIBLE ATOMS IN THE CONVENTIONAL CELL:    3

 INPUT COORDINATES

 ATOM AT. N.              COORDINATES
   1  26     2.835300000000E-01  5.064300000000E-01  7.942900000000E-01
   2  33     1.474600000000E-01  3.694500000000E-01  3.693700000000E-01
   3  16     6.551000000000E-01  3.689000000000E-01  8.211000000000E-01

 *******************************************************************************

 << INFORMATION >>: FROM NOW ON, ALL COORDINATES REFER TO THE PRIMITIVE CELL

 *******************************************************************************

 LATTICE PARAMETERS  (ANGSTROMS AND DEGREES) - PRIMITIVE CELL
       A          B          C        ALPHA      BETA     GAMMA        VOLUME
    5.76120    5.68410    5.76740    90.00000 111.72100  90.00000    175.456330

 COORDINATES OF THE EQUIVALENT ATOMS (FRACTIONAL UNITS)

 N. ATOM EQUIV AT. N.          X                  Y                  Z

   1   1   1   26 FE    2.83530000000E-01 -4.93570000000E-01 -2.05710000000E-01
   2   1   2   26 FE   -2.83530000000E-01  6.43000000000E-03 -2.94290000000E-01
   3   1   3   26 FE   -2.83530000000E-01  4.93570000000E-01  2.05710000000E-01
   4   1   4   26 FE    2.83530000000E-01 -6.43000000000E-03  2.94290000000E-01

   5   2   1   33 AS    1.47460000000E-01  3.69450000000E-01  3.69370000000E-01
   6   2   2   33 AS   -1.47460000000E-01 -1.30550000000E-01  1.30630000000E-01
   7   2   3   33 AS   -1.47460000000E-01 -3.69450000000E-01 -3.69370000000E-01
   8   2   4   33 AS    1.47460000000E-01  1.30550000000E-01 -1.30630000000E-01

   9   3   1   16 S    -3.44900000000E-01  3.68900000000E-01 -1.78900000000E-01
  10   3   2   16 S     3.44900000000E-01 -1.31100000000E-01 -3.21100000000E-01
  11   3   3   16 S     3.44900000000E-01 -3.68900000000E-01  1.78900000000E-01
  12   3   4   16 S    -3.44900000000E-01  1.31100000000E-01  3.21100000000E-01

 NUMBER OF SYMMETRY OPERATORS         :    4
 *******************************************************************************
 * GEOMETRY EDITING - INPUT COORDINATES ARE GIVEN IN ANGSTROM         
 *******************************************************************************

 GEOMETRY NOW FULLY CONSISTENT WITH THE GROUP

 FRQFRQFRQFRQFRQFRQFRQFRQFRQFRQFRQFRQFRQFRQFRQFRQFRQFRQFRQFRQFRQFRQFRQFRQFRQFRQ

                       FREQUENCY CALCULATION

 OPTIMIZATION PERFORMED BEFORE FREQUENCIES CALCULATION
 *******************************************************************************
 INFORMATION **** NEW DEFAULT **** FINALRUN 4 FOR GEOMETRY OPTIMIZATIONS
 INFORMATION **** NEW DEFAULT **** OPTGEOM OPTIMIZES ATOMIC COORDINATES ONLY
 INFORMATION **** NEW DEFAULT **** TOL. ON ATOMIC DISP TO REDEFINE REF. GEOMETRY: 0.8 Angs
 INFORMATION **** NEW DEFAULT **** N POINTS TO REDEFINE REF. GEOMETRY: N OF OPT DEGS OF FREEDOM
 INFORMATION **** NEW DEFAULT **** TOL. ON ENERGY TO REDEFINE REF. GEOMETRY: 10**-3*(5*N. ATOMS)
 INFORMATION **** FULLOPTG **** FULL OPTIMIZATION (ATOMS AND CELL PARAMETERS)

 IMPORTANT INFORMATION:
 THE COORDINATE SYSTEM ADOPTED IN THE OPTIMIZATION IS NOT IN
 GENERAL HOMOGENEOUS UNITS. FOR THIS REASON THE GRADIENT AND 
 HESSIAN MATRIX IN TERMS OF THIS SYSTEM ARE GIVEN WITHOUT
 UNITS. FOR MORE DETAILS SEE THE MANUAL.

 *******************************************************************************
 COMBINED CELL/ATOM OPTIMIZATION CONTROL

 INITIAL TRUST RADIUS         0.50000 MAXIMUM TRUST RADIUS               0.50000
 MAXIMUM GRADIENT COMPONENT   0.00005 MAXIMUM DISPLACEMENT COMPONENT     0.00018
 R.M.S. OF GRADIENT COMPONENT 0.00003 R.M.S. OF DISPLACEMENT COMPONENTS  0.00012
 THRESHOLD ON ENERGY CHANGE 0.100E-06 EXTRAPOLATING POLYNOMIAL ORDER           2
 MAXIMUM ALLOWED NUMBER OF STEPS   -1 SORTING OF ENERGY POINTS:               NO
 ANALYTICAL  GRADIENT                 HESSIAN UPDATING                      BFGS
 STEP SIZE NUMERICAL GRADIENT 0.00100
 INITIAL HESSIAN MATRIX: SCHLEGEL MODEL 2
 *******************************************************************************

 INFORMATION **** INPFREQ **** IR INTENSITIES EVALUATED THROUGH CPHF APPROACH
 INFORMATION **** INPFREQ **** NEW DEFAULT - IMPOSING ECKART CONDITIONS TO THE HESSIAN

 GCALCO - MAX INDICES DIRECT LATTICE VECTOR    15    14    15
 NO.OF VECTORS CREATED 6999 STARS 1869 RMAX   125.66389 BOHR

 GEOMETRY FOR WAVE FUNCTION - DIMENSIONALITY OF THE SYSTEM    3
 (NON PERIODIC DIRECTION: LATTICE PARAMETER FORMALLY SET TO 500)
 *******************************************************************************
 LATTICE PARAMETERS (ANGSTROMS AND DEGREES) - BOHR = 0.5291772083 ANGSTROM
 PRIMITIVE CELL - CENTRING CODE 1/0 VOLUME=   175.456330 - DENSITY  6.164 g/cm^3
         A              B              C           ALPHA      BETA       GAMMA 
     5.76120000     5.68410000     5.76740000    90.000000 111.721000  90.000000
 *******************************************************************************
 ATOMS IN THE ASYMMETRIC UNIT    3 - ATOMS IN THE UNIT CELL:   12
     ATOM                 X/A                 Y/B                 Z/C    
 *******************************************************************************
      1 T  26 FE    2.835300000000E-01 -4.935700000000E-01 -2.057100000000E-01
      2 F  26 FE   -2.835300000000E-01  6.430000000000E-03 -2.942900000000E-01
      3 F  26 FE   -2.835300000000E-01  4.935700000000E-01  2.057100000000E-01
      4 F  26 FE    2.835300000000E-01 -6.430000000000E-03  2.942900000000E-01
      5 T  33 AS    1.474600000000E-01  3.694500000000E-01  3.693700000000E-01
      6 F  33 AS   -1.474600000000E-01 -1.305500000000E-01  1.306300000000E-01
      7 F  33 AS   -1.474600000000E-01 -3.694500000000E-01 -3.693700000000E-01
      8 F  33 AS    1.474600000000E-01  1.305500000000E-01 -1.306300000000E-01
      9 T  16 S    -3.449000000000E-01  3.689000000000E-01 -1.789000000000E-01
     10 F  16 S     3.449000000000E-01 -1.311000000000E-01 -3.211000000000E-01
     11 F  16 S     3.449000000000E-01 -3.689000000000E-01  1.789000000000E-01
     12 F  16 S    -3.449000000000E-01  1.311000000000E-01  3.211000000000E-01

 T = ATOM BELONGING TO THE ASYMMETRIC UNIT

 ****    4 SYMMOPS - TRANSLATORS IN FRACTIONAL UNITS
 **** MATRICES AND TRANSLATORS IN THE CRYSTALLOGRAPHIC REFERENCE FRAME
   V INV                    ROTATION MATRICES                   TRANSLATORS
   1   1  1.00  0.00  0.00  0.00  1.00  0.00  0.00  0.00  1.00  0.00  0.00  0.00
   2   2 -1.00  0.00  0.00 -0.00  1.00 -0.00  0.00  0.00 -1.00 -0.00  0.50  0.50
   3   3 -1.00  0.00  0.00  0.00 -1.00  0.00  0.00  0.00 -1.00  0.00  0.00  0.00
   4   4  1.00  0.00 -0.00  0.00 -1.00  0.00  0.00  0.00  1.00 -0.00  0.50  0.50

 DIRECT LATTICE VECTORS CARTESIAN COMPONENTS (ANGSTROM)
          X                    Y                    Z
   0.576120000000E+01   0.352771756962E-15   0.000000000000E+00
   0.000000000000E+00   0.568410000000E+01   0.000000000000E+00
  -0.213444136313E+01   0.353151397470E-15   0.535789723934E+01


 CARTESIAN COORDINATES - PRIMITIVE CELL
 *******************************************************************************
 *      ATOM          X(ANGSTROM)         Y(ANGSTROM)         Z(ANGSTROM)
 *******************************************************************************
    1    26 FE    2.072548968809E+00 -2.805501237000E+00 -1.102173041105E+00
    2    26 FE   -1.005328287245E+00  3.654876300000E-02 -1.576775578567E+00
    3    26 FE   -2.072548968809E+00  2.805501237000E+00  1.102173041105E+00
    4    26 FE    1.005328287245E+00 -3.654876300000E-02  1.576775578567E+00
    5    33 AS    6.114794570156E-02  2.099990745000E+00  1.979046503296E+00
    6    33 AS   -1.128368627265E+00 -7.420592550000E-01  6.999021163755E-01
    7    33 AS   -6.114794570156E-02 -2.099990745000E+00 -1.979046503296E+00
    8    33 AS    1.128368627265E+00  7.420592550000E-01 -6.999021163755E-01
    9    16 S    -1.605186320136E+00  2.096864490000E+00 -9.585278161186E-01
   10    16 S     2.672407001700E+00 -7.451855100000E-01 -1.720420803553E+00
   11    16 S     1.605186320136E+00 -2.096864490000E+00  9.585278161186E-01
   12    16 S    -2.672407001700E+00  7.451855100000E-01  1.720420803553E+00

 *******************************************************************************
 LOCAL ATOMIC FUNCTIONS BASIS SET
 *******************************************************************************
   ATOM   X(AU)   Y(AU)   Z(AU)  N. TYPE  EXPONENT  S COEF   P COEF   D/F/G COEF
 *******************************************************************************
   1 FE   3.917  -5.302  -2.083
                                  1 S  
                                         3.008E+05 2.281E-04 0.000E+00 0.000E+00
                                         4.509E+04 1.768E-03 0.000E+00 0.000E+00
                                         1.026E+04 9.193E-03 0.000E+00 0.000E+00
                                         2.905E+03 3.736E-02 0.000E+00 0.000E+00
                                         9.461E+02 1.215E-01 0.000E+00 0.000E+00
                                         3.399E+02 2.882E-01 0.000E+00 0.000E+00
                                         1.319E+02 4.113E-01 0.000E+00 0.000E+00
                                         5.211E+01 2.152E-01 0.000E+00 0.000E+00
                                  2 S  
                                         3.295E+02-2.475E-02 0.000E+00 0.000E+00
                                         1.019E+02-1.168E-01 0.000E+00 0.000E+00
                                         1.624E+01 5.529E-01 0.000E+00 0.000E+00
                                         6.884E+00 5.360E-01 0.000E+00 0.000E+00
                                  3 S  
                                         1.047E+01-2.291E-01 0.000E+00 0.000E+00
                                         1.736E+00 7.116E-01 0.000E+00 0.000E+00
                                  4 S  
                                         1.257E+00 1.000E+00 0.000E+00 0.000E+00
                                  5 S  
                                         5.755E-01 1.000E+00 0.000E+00 0.000E+00
                                  6 S  
                                         1.559E-01 1.000E+00 0.000E+00 0.000E+00
                           7-     9 P  
                                         1.585E+03 0.000E+00 2.379E-03 0.000E+00
                                         3.754E+02 0.000E+00 1.925E-02 0.000E+00
                                         1.203E+02 0.000E+00 9.002E-02 0.000E+00
                                         4.479E+01 0.000E+00 2.580E-01 0.000E+00
                                         1.783E+01 0.000E+00 4.149E-01 0.000E+00
                                         7.225E+00 0.000E+00 2.421E-01 0.000E+00
                          10-    12 P  
                                         2.814E+01 0.000E+00-2.904E-02 0.000E+00
                                         3.874E+00 0.000E+00 5.531E-01 0.000E+00
                                         1.541E+00 0.000E+00 9.677E-01 0.000E+00
                          13-    15 P  
                                         6.337E-01 0.000E+00 1.000E+00 0.000E+00
                          16-    18 P  
                                         2.000E-01 0.000E+00 1.000E+00 0.000E+00
                          19-    23 D  
                                         6.200E+01 0.000E+00 0.000E+00 1.197E-02
                                         1.787E+01 0.000E+00 0.000E+00 7.321E-02
                                         6.274E+00 0.000E+00 0.000E+00 2.310E-01
                                         2.355E+00 0.000E+00 0.000E+00 3.991E-01
                          24-    28 D  
                                         8.417E-01 0.000E+00 0.000E+00 1.000E+00
                          29-    33 D  
                                         2.611E-01 0.000E+00 0.000E+00 1.000E+00
                          34-    40 F  
                                         1.198E+00 0.000E+00 0.000E+00 1.000E+00
   2 FE  -1.900   0.069  -2.980
   3 FE  -3.917   5.302   2.083
   4 FE   1.900  -0.069   2.980
   5 AS   0.116   3.968   3.740
                                161 S  
                                         4.980E+05 2.274E-04 0.000E+00 0.000E+00
                                         7.466E+04 1.763E-03 0.000E+00 0.000E+00
                                         1.699E+04 9.173E-03 0.000E+00 0.000E+00
                                         4.810E+03 3.734E-02 0.000E+00 0.000E+00
                                         1.566E+03 1.220E-01 0.000E+00 0.000E+00
                                         5.632E+02 2.914E-01 0.000E+00 0.000E+00
                                         2.191E+02 4.233E-01 0.000E+00 0.000E+00
                                         8.687E+01 2.292E-01 0.000E+00 0.000E+00
                                162 S  
                                         5.382E+02-2.525E-02 0.000E+00 0.000E+00
                                         1.671E+02-1.192E-01 0.000E+00 0.000E+00
                                         2.761E+01 5.463E-01 0.000E+00 0.000E+00
                                         1.195E+01 5.300E-01 0.000E+00 0.000E+00
                                163 S  
                                         1.854E+01-2.348E-01 0.000E+00 0.000E+00
                                         3.202E+00 6.917E-01 0.000E+00 0.000E+00
                                164 S  
                                         1.788E+00 1.000E+00 0.000E+00 0.000E+00
                                165 S  
                                         5.961E-01 1.000E+00 0.000E+00 0.000E+00
                                166 S  
                                         2.163E-01 1.000E+00 0.000E+00 0.000E+00
                         167-   169 P  
                                         2.679E+03 0.000E+00 2.332E-03 0.000E+00
                                         6.346E+02 0.000E+00 1.904E-02 0.000E+00
                                         2.039E+02 0.000E+00 9.023E-02 0.000E+00
                                         7.632E+01 0.000E+00 2.617E-01 0.000E+00
                                         3.066E+01 0.000E+00 4.186E-01 0.000E+00
                                         1.251E+01 0.000E+00 2.345E-01 0.000E+00
                         170-   172 P  
                                         4.926E+01 0.000E+00-2.124E-02 0.000E+00
                                         7.727E+00 0.000E+00 3.047E-01 0.000E+00
                                         3.541E+00 0.000E+00 5.289E-01 0.000E+00
                                         1.699E+00 0.000E+00 3.727E-01 0.000E+00
                         173-   175 P  
                                         8.685E-01 0.000E+00 1.000E+00 0.000E+00
                         176-   178 P  
                                         4.173E-01 0.000E+00 1.000E+00 0.000E+00
                         179-   181 P  
                                         1.470E-01 0.000E+00 1.000E+00 0.000E+00
                         182-   186 D  
                                         1.353E+02 0.000E+00 0.000E+00 9.929E-03
                                         3.986E+01 0.000E+00 0.000E+00 6.657E-02
                                         1.445E+01 0.000E+00 0.000E+00 2.228E-01
                                         5.643E+00 0.000E+00 0.000E+00 4.031E-01
                                         2.167E+00 0.000E+00 0.000E+00 4.167E-01
                         187-   191 D  
                                         1.898E+00 0.000E+00 0.000E+00 1.000E+00
                         192-   196 D  
                                         9.488E-01 0.000E+00 0.000E+00 1.000E+00
                         197-   201 D  
                                         4.744E-01 0.000E+00 0.000E+00 1.000E+00
   6 AS  -2.132  -1.402   1.323
   7 AS  -0.116  -3.968  -3.740
   8 AS   2.132   1.402  -1.323
   9 S   -3.033   3.962  -1.811
                                325 S  
                                         6.070E+04 5.470E-04 0.000E+00 0.000E+00
                                         9.103E+03 4.230E-03 0.000E+00 0.000E+00
                                         2.071E+03 2.175E-02 0.000E+00 0.000E+00
                                         5.860E+02 8.510E-02 0.000E+00 0.000E+00
                                         1.906E+02 2.480E-01 0.000E+00 0.000E+00
                                         6.763E+01 4.670E-01 0.000E+00 0.000E+00
                                         2.513E+01 3.643E-01 0.000E+00 0.000E+00
                                326 S  
                                         1.126E+02 2.167E-02 0.000E+00 0.000E+00
                                         3.480E+01 9.360E-02 0.000E+00 0.000E+00
                                         6.512E+00-2.607E-01 0.000E+00 0.000E+00
                                327 S  
                                         3.240E+00 1.284E+00 0.000E+00 0.000E+00
                                         1.548E+00 6.604E-01 0.000E+00 0.000E+00
                                328 S  
                                         4.487E-01 1.000E+00 0.000E+00 0.000E+00
                                329 S  
                                         1.553E-01 1.000E+00 0.000E+00 0.000E+00
                         330-   332 P  
                                         5.644E+02 0.000E+00 2.480E-03 0.000E+00
                                         1.334E+02 0.000E+00 1.968E-02 0.000E+00
                                         4.247E+01 0.000E+00 8.998E-02 0.000E+00
                                         1.562E+01 0.000E+00 2.571E-01 0.000E+00
                                         6.109E+00 0.000E+00 4.352E-01 0.000E+00
                         333-   335 P  
                                         2.036E+00 0.000E+00 1.000E+00 0.000E+00
                         336-   338 P  
                                         4.338E-01 0.000E+00 1.000E+00 0.000E+00
                         339-   341 P  
                                         1.305E-01 0.000E+00 1.000E+00 0.000E+00
                         342-   346 D  
                                         4.107E-01 0.000E+00 0.000E+00 1.000E+00
  10 S    5.050  -1.408  -3.251
  11 S    3.033  -3.962   1.811
  12 S   -5.050   1.408   3.251
 INFORMATION **** SET_MPP **** PCRYSTAL CALCULATION
 INFORMATION **** READM2 **** NEW DEFAULT: FOCK/KS MATRIX MIXING SET TO 30 %
 INFORMATION **** READM2 **** NEW DEFAULT: FULL DIRECT SCF MODE
 INFORMATION **** READM2 **** NEW DEFAULT: COULOMB BIPOLAR BUFFER SET TO 32 Mb
 INFORMATION **** READM2 **** NEW DEFAULT: EXCHANGE BIPOLAR BUFFER SET TO 32 Mb

 *******************************************************************************
 NEW DEFAULT: DFT INTEGRATION GRID INCREASED TO XLGRID
 NEW DEFAULT: DIIS ACCELERATOR ACTIVE
 USE KEYWORD NODIIS TO TURN IT OFF
 *******************************************************************************

 INFORMATION **** RDDFTP **** MAX N. OF POINTS ALLOWED IN A BATCH FOR NUMERICAL INTEGRATION         200
 INFORMATION **** TOLINTEG **** COULOMB AND EXCHANGE SERIES TOLERANCES MODIFIED
 INFORMATION **** TOLDEE **** SCF TOL ON TOTAL ENERGY SET TO          11
 INFORMATION **** EXCHSIZE **** EXCHANGE BIPOLAR BUFFER SIZE SET TO    12012489
 INFORMATION **** MAXCYCLE **** MAX NUMBER OF SCF CYCLES SET TO         150
 *******************************************************************************
 N. OF ATOMS PER CELL        12  COULOMB OVERLAP TOL         (T1) 10**   -7
 NUMBER OF SHELLS           156  COULOMB PENETRATION TOL     (T2) 10**   -7
 NUMBER OF AO               412  EXCHANGE OVERLAP TOL        (T3) 10**   -7
 N. OF ELECTRONS PER CELL   300  EXCHANGE PSEUDO OVP (F(G))  (T4) 10**   -9
 CORE ELECTRONS PER CELL    224  EXCHANGE PSEUDO OVP (P(G))  (T5) 10**  -30
 N. OF SYMMETRY OPERATORS     4  POLE ORDER IN MONO ZONE                  4
 *******************************************************************************
 TYPE OF CALCULATION :  UNRESTRICTED OPEN SHELL
 KOHN-SHAM HAMILTONIAN

 (EXCHANGE)[CORRELATION] FUNCTIONAL:(PERDEW-BURKE-ERNZERHOF)[PERDEW-BURKE-ERNZERHOF]


 HYBRID EXCHANGE - PERCENTAGE OF FOCK EXCHANGE    25.0000

 SPIN POLARIZED DFT SELECTED

 CAPPA:IS1  8;IS2  8;IS3  8; K PTS MONK NET 170; SYMMOPS:K SPACE   4;G SPACE   4

 *******************************************************************************
 MAX NUMBER OF SCF CYCLES     150  CONVERGENCE ON DELTAP        10**-21
 WEIGHT OF F(I) IN F(I+1)      30% CONVERGENCE ON ENERGY        10**-11
 SHRINK. FACT.(MONKH.)    8  8  8  NUMBER OF K POINTS IN THE IBZ    170
 SHRINKING FACTOR(GILAT NET)    8  NUMBER OF K POINTS(GILAT NET)    170
 *******************************************************************************
 *** K POINTS COORDINATES (OBLIQUE COORDINATES IN UNITS OF IS =  8)
   1-R(  0  0  0)   2-C(  1  0  0)   3-C(  2  0  0)   4-C(  3  0  0)
   5-R(  4  0  0)   6-C(  0  1  0)   7-C(  1  1  0)   8-C(  2  1  0)
   9-C(  3  1  0)  10-C(  4  1  0)  11-C(  0  2  0)  12-C(  1  2  0)
  13-C(  2  2  0)  14-C(  3  2  0)  15-C(  4  2  0)  16-C(  0  3  0)
  17-C(  1  3  0)  18-C(  2  3  0)  19-C(  3  3  0)  20-C(  4  3  0)
  21-R(  0  4  0)  22-C(  1  4  0)  23-C(  2  4  0)  24-C(  3  4  0)
  25-R(  4  4  0)  26-C(  0  0  1)  27-C(  1  0  1)  28-C(  2  0  1)
  29-C(  3  0  1)  30-C(  4  0  1)  31-C(  5  0  1)  32-C(  6  0  1)
  33-C(  7  0  1)  34-C(  0  1  1)  35-C(  1  1  1)  36-C(  2  1  1)
  37-C(  3  1  1)  38-C(  4  1  1)  39-C(  5  1  1)  40-C(  6  1  1)
  41-C(  7  1  1)  42-C(  0  2  1)  43-C(  1  2  1)  44-C(  2  2  1)
  45-C(  3  2  1)  46-C(  4  2  1)  47-C(  5  2  1)  48-C(  6  2  1)
  49-C(  7  2  1)  50-C(  0  3  1)  51-C(  1  3  1)  52-C(  2  3  1)
  53-C(  3  3  1)  54-C(  4  3  1)  55-C(  5  3  1)  56-C(  6  3  1)
  57-C(  7  3  1)  58-C(  0  4  1)  59-C(  1  4  1)  60-C(  2  4  1)
  61-C(  3  4  1)  62-C(  4  4  1)  63-C(  5  4  1)  64-C(  6  4  1)
  65-C(  7  4  1)  66-C(  0  0  2)  67-C(  1  0  2)  68-C(  2  0  2)
  69-C(  3  0  2)  70-C(  4  0  2)  71-C(  5  0  2)  72-C(  6  0  2)
  73-C(  7  0  2)  74-C(  0  1  2)  75-C(  1  1  2)  76-C(  2  1  2)
  77-C(  3  1  2)  78-C(  4  1  2)  79-C(  5  1  2)  80-C(  6  1  2)
  81-C(  7  1  2)  82-C(  0  2  2)  83-C(  1  2  2)  84-C(  2  2  2)
  85-C(  3  2  2)  86-C(  4  2  2)  87-C(  5  2  2)  88-C(  6  2  2)
  89-C(  7  2  2)  90-C(  0  3  2)  91-C(  1  3  2)  92-C(  2  3  2)
  93-C(  3  3  2)  94-C(  4  3  2)  95-C(  5  3  2)  96-C(  6  3  2)
  97-C(  7  3  2)  98-C(  0  4  2)  99-C(  1  4  2) 100-C(  2  4  2)
 101-C(  3  4  2) 102-C(  4  4  2) 103-C(  5  4  2) 104-C(  6  4  2)
 105-C(  7  4  2) 106-C(  0  0  3) 107-C(  1  0  3) 108-C(  2  0  3)
 109-C(  3  0  3) 110-C(  4  0  3) 111-C(  5  0  3) 112-C(  6  0  3)
 113-C(  7  0  3) 114-C(  0  1  3) 115-C(  1  1  3) 116-C(  2  1  3)
 117-C(  3  1  3) 118-C(  4  1  3) 119-C(  5  1  3) 120-C(  6  1  3)
 121-C(  7  1  3) 122-C(  0  2  3) 123-C(  1  2  3) 124-C(  2  2  3)
 125-C(  3  2  3) 126-C(  4  2  3) 127-C(  5  2  3) 128-C(  6  2  3)
 129-C(  7  2  3) 130-C(  0  3  3) 131-C(  1  3  3) 132-C(  2  3  3)
 133-C(  3  3  3) 134-C(  4  3  3) 135-C(  5  3  3) 136-C(  6  3  3)
 137-C(  7  3  3) 138-C(  0  4  3) 139-C(  1  4  3) 140-C(  2  4  3)
 141-C(  3  4  3) 142-C(  4  4  3) 143-C(  5  4  3) 144-C(  6  4  3)
 145-C(  7  4  3) 146-R(  0  0  4) 147-C(  1  0  4) 148-C(  2  0  4)
 149-C(  3  0  4) 150-R(  4  0  4) 151-C(  0  1  4) 152-C(  1  1  4)
 153-C(  2  1  4) 154-C(  3  1  4) 155-C(  4  1  4) 156-C(  0  2  4)
 157-C(  1  2  4) 158-C(  2  2  4) 159-C(  3  2  4) 160-C(  4  2  4)
 161-C(  0  3  4) 162-C(  1  3  4) 163-C(  2  3  4) 164-C(  3  3  4)
 165-C(  4  3  4) 166-R(  0  4  4) 167-C(  1  4  4) 168-C(  2  4  4)
 169-C(  3  4  4) 170-R(  4  4  4)

 DIRECT LATTICE VECTORS COMPON. (A.U.)     RECIP. LATTICE VECTORS COMPON. (A.U.) 
        X            Y            Z              X            Y            Z
   10.8870902    0.0000000    0.0000000      0.5771226   -0.0000000    0.2299100
    0.0000000   10.7413923    0.0000000     -0.0000000    0.5849507   -0.0000000
   -4.0335096    0.0000000   10.1249584      0.0000000    0.0000000    0.6205641

 DISK SPACE FOR EIGENVECTORS (FTN 10)    56355008 REALS

 SYMMETRY ADAPTION OF THE BLOCH FUNCTIONS ENABLED
 TTTTTTTTTTTTTTTTTTTTTTTTTTTTTT gordsh1     TELAPSE        7.46 TCPU        5.08

 MATRIX SIZE: P(G) 2693776, F(G)  215322, P(G) IRR  349224, F(G) IRR   55650
 MAX G-VECTOR INDEX FOR 1- AND 2-ELECTRON INTEGRALS 277

 TTTTTTTTTTTTTTTTTTTTTTTTTTTTTT INPUT       TELAPSE        7.46 TCPU        5.08

 NEIGHBORS OF THE NON-EQUIVALENT ATOMS

 N = NUMBER OF NEIGHBORS AT DISTANCE R
    ATOM  N     R/ANG      R/AU   NEIGHBORS (ATOM LABELS AND CELL INDICES)
   1 FE   1     2.2287     4.2116   11 S    0 0 0
   1 FE   1     2.2299     4.2139    9 S    1-1 0
   1 FE   1     2.2332     4.2200   10 S    0 0 0
   1 FE   1     2.3703     4.4791    8 AS   0-1 0
   1 FE   1     2.4093     4.5529    5 AS   0-1-1
   1 FE   1     2.4123     4.5586    7 AS   0 0 0

   5 AS   1     2.3703     4.4791    4 FE   0 0 0
   5 AS   1     2.3743     4.4868   11 S    0 1 0
   5 AS   1     2.4093     4.5529    1 FE   0 1 1
   5 AS   1     2.4123     4.5586    3 FE   0 0 0
   5 AS   1     3.0422     5.7489    7 AS   0 1 1
   5 AS   1     3.0618     5.7860   12 S    0 0 0

   9 S    1     2.2287     4.2116    3 FE   0 0 0
   9 S    1     2.2299     4.2139    1 FE  -1 1 0
   9 S    1     2.2332     4.2200    2 FE   0 0 0
   9 S    1     2.3743     4.4868    7 AS   0 1 0
   9 S    1     3.0618     5.7860    8 AS   0 0 0
   9 S    1     3.1147     5.8859    5 AS  -1 0-1


 SYMMETRY ALLOWED ELASTIC DISTORTION 1
  0.5773503  0.0000000  0.0000000
  0.0000000  0.5773503  0.0000000
  0.0000000  0.0000000  0.5773503

 SYMMETRY ALLOWED ELASTIC DISTORTION 2
  0.8164966  0.0000000  0.0000000
  0.0000000 -0.4082483  0.0000000
  0.0000000  0.0000000 -0.4082483

 SYMMETRY ALLOWED ELASTIC DISTORTION 3
  0.0000000  0.0000000  0.0000000
  0.0000000  0.7071068  0.0000000
  0.0000000  0.0000000 -0.7071068

 SYMMETRY ALLOWED ELASTIC DISTORTION 4
 -0.0000000  0.0000000  0.7071068
  0.0000000  0.0000000  0.0000000
  0.7071068  0.0000000  0.0000000

 SYMMETRY ALLOWED INTERNAL DEGREE(S) OF FREEDOM:   9
 TTTTTTTTTTTTTTTTTTTTTTTTTTTTTT SYMM        TELAPSE        7.57 TCPU        5.19
 TTTTTTTTTTTTTTTTTTTTTTTTTTTTTT INT_SCREEN  TELAPSE        7.58 TCPU        5.20

 *******************************************************************************
 *                             OPTIMIZATION STARTS                             *
 *******************************************************************************
 RECLASIFICATION OF INDICES FOR INTEGRAL CALC ACCORDING TO DIFFERENT CRITERIA:
           FIXDELTE                  FIXDELTX              FIXDELTN
          0.10000000               0.80000000                 13
 *******************************************************************************

 *******************************************************************************
 COORDINATE AND CELL OPTIMIZATION - POINT    1

 DFT PARAMETERS

     ATOM       ELECTRONS   NET CHARGE   R(ANGSTROM)
   1  26  FE     26.0000      0.0000     1.26000000
   5  33  AS     33.0000      0.0000     1.21000000
   9  16  S      16.0000      0.0000     1.04000000

 SIZE OF GRID=     136335
 TTTTTTTTTTTTTTTTTTTTTTTTTTTTTT MAKE_GRID2  TELAPSE       14.14 TCPU       11.71
 BECKE WEIGHT FUNCTION
 RADSAFE =     2.00
 TOLERANCES - DENSITY:10**- 6; POTENTIAL:10**- 9; GRID WGT:10**-14

 RADIAL INTEGRATION  - INTERVALS (POINTS,UPPER LIMIT):            1( 99,  4.0*R)

 ANGULAR INTEGRATION - INTERVALS (ACCURACY LEVEL [N. POINTS] UPPER LIMIT):
  1(  6[ 146]   0.2)  2( 11[ 302]   0.5)  3( 14[ 590]   0.9)  4( 18[1454]   3.5)
  5( 14[ 590]9999.0)
 TTTTTTTTTTTTTTTTTTTTTTTTTTTTTT INT_CALC    TELAPSE       14.16 TCPU       11.73

 *******************************************************************************
 ICSD_CollCode185809.cif                                                         
 CRYSTAL - SCF - TYPE OF CALCULATION :  UNRESTRICTED OPEN SHELL
 *******************************************************************************

 CAPPA:IS1  8;IS2  8;IS3  8; K PTS MONK NET 170; SYMMOPS:K SPACE   4;G SPACE   4

 TTTTTTTTTTTTTTTTTTTTTTTTTTTTTT SDIK        TELAPSE       14.34 TCPU       11.85

 AAAAAAAAAAAAAAAAAAAAAAAAAAAAAAAAAAAAAAAAAAAAAAAAAAAAAAAAAAAAAAAAAAAAAAAAAAAAAAA
         ATOMIC WAVEFUNCTION(S)


 NUCLEAR CHARGE 26.0  SYMMETRY SPECIES            S    P    D
 N. ELECTRONS   26.0  NUMBER OF PRIMITIVE GTOS   17   11    6
                      NUMBER OF CONTRACTED GTOS   6    4    3
                      NUMBER OF CLOSED SHELLS     4    2    0
                      OPEN SHELL OCCUPATION       0    0    6

  ZNUC  SCFIT    TOTAL HF ENERGY   KINETIC ENERGY   VIRIAL THEOREM             ACCURACY
  26.0    27    -1.262303928E+03  1.262527654E+03 -1.999822796E+00  4.7E-06

 NUCLEAR CHARGE 33.0  SYMMETRY SPECIES            S    P    D
 N. ELECTRONS   33.0  NUMBER OF PRIMITIVE GTOS   17   13    8
                      NUMBER OF CONTRACTED GTOS   6    5    4
                      NUMBER OF CLOSED SHELLS     4    2    1
                      OPEN SHELL OCCUPATION       0    3    0

  ZNUC  SCFIT    TOTAL HF ENERGY   KINETIC ENERGY   VIRIAL THEOREM             ACCURACY
  33.0    17    -2.234164428E+03  2.233930354E+03 -2.000104781E+00  4.0E-06

 NUCLEAR CHARGE 16.0  SYMMETRY SPECIES            S    P
 N. ELECTRONS   16.0  NUMBER OF PRIMITIVE GTOS   14    8
                      NUMBER OF CONTRACTED GTOS   5    4
                      NUMBER OF CLOSED SHELLS     3    1
                      OPEN SHELL OCCUPATION       0    4

  ZNUC  SCFIT    TOTAL HF ENERGY   KINETIC ENERGY   VIRIAL THEOREM             ACCURACY
  16.0    11    -3.974118762E+02  3.986854297E+02 -1.996805618E+00  4.0E-06

 AAAAAAAAAAAAAAAAAAAAAAAAAAAAAAAAAAAAAAAAAAAAAAAAAAAAAAAAAAAAAAAAAAAAAAAAAAAAAAA

 TTTTTTTTTTTTTTTTTTTTTTTTTTTTTT MOQGAD      TELAPSE       14.35 TCPU       11.87
 TTTTTTTTTTTTTTTTTTTTTTTTTTTTTT SHELLXN     TELAPSE       20.90 TCPU       18.35
 TTTTTTTTTTTTTTTTTTTTTTTTTTTTTT MONMO3      TELAPSE       20.92 TCPU       18.37
 NUMERICALLY INTEGRATED DENSITY    149.9999973450    149.9999973450
 TTTTTTTTTTTTTTTTTTTTTTTTTTTTTT NUMDFT      TELAPSE       21.35 TCPU       18.79
 CYC   0 ETOT(AU) -1.559091574302E+04 DETOT -1.56E+04 tst  0.00E+00 PX  1.00E+00
 TTTTTTTTTTTTTTTTTTTTTTTTTTTTTT DIIS        TELAPSE       21.38 TCPU       18.82
 TTTTTTTTTTTTTTTTTTTTTTTTTTTTTT FDIK        TELAPSE       21.79 TCPU       19.21

    ALPHA      ELECTRONS
 INSULATING STATE
 TOP OF VALENCE BANDS -    BAND    150; K   70; EIG -1.6505394E-01 AU
 TOP OF VALENCE BANDS -    BAND    150; K    1; EIG -1.7427186E-01 AU
 BOTTOM OF VIRTUAL BANDS - BAND    151; K    1; EIG -1.3737481E-01 AU
 INDIRECT ENERGY BAND GAP:   0.7532 eV

    BETA       ELECTRONS
 INSULATING STATE
 TOP OF VALENCE BANDS -    BAND    150; K   70; EIG -1.6505394E-01 AU
 TOP OF VALENCE BANDS -    BAND    150; K    1; EIG -1.7427186E-01 AU
 BOTTOM OF VIRTUAL BANDS - BAND    151; K    1; EIG -1.3737481E-01 AU
 INDIRECT ENERGY BAND GAP:   0.7532 eV
 TTTTTTTTTTTTTTTTTTTTTTTTTTTTTT PDIG        TELAPSE       22.03 TCPU       19.44
 TTTTTTTTTTTTTTTTTTTTTTTTTTTTTT MOQGAD      TELAPSE       22.03 TCPU       19.44
 TTTTTTTTTTTTTTTTTTTTTTTTTTTTTT SHELLXN     TELAPSE       29.09 TCPU       26.44
 TTTTTTTTTTTTTTTTTTTTTTTTTTTTTT MONMO3      TELAPSE       29.11 TCPU       26.45
 NUMERICALLY INTEGRATED DENSITY    149.9999965293    149.9999965293
 TTTTTTTTTTTTTTTTTTTTTTTTTTTTTT NUMDFT      TELAPSE       29.50 TCPU       26.84
 CYC   1 ETOT(AU) -1.558873427762E+04 DETOT  2.18E+00 tst  0.00E+00 PX  1.00E+00
 TTTTTTTTTTTTTTTTTTTTTTTTTTTTTT DIIS        TELAPSE       29.53 TCPU       26.87
 DIIS TEST: 0.95952E+00 AT SCF   CYCLE   1 - MIX   30 %
 TTTTTTTTTTTTTTTTTTTTTTTTTTTTTT FDIK        TELAPSE       29.92 TCPU       27.26

    ALPHA      ELECTRONS
 INSULATING STATE
 TOP OF VALENCE BANDS -    BAND    150; K  170; EIG -2.0072138E-01 AU
 TOP OF VALENCE BANDS -    BAND    150; K    1; EIG -2.3134563E-01 AU
 BOTTOM OF VIRTUAL BANDS - BAND    151; K    2; EIG -1.6743384E-01 AU
 INDIRECT ENERGY BAND GAP:   0.9058 eV
 BOTTOM OF VIRTUAL BANDS - BAND    151; K    1; EIG -1.6737303E-01 AU

    BETA       ELECTRONS
 INSULATING STATE
 TOP OF VALENCE BANDS -    BAND    150; K  170; EIG -2.0072138E-01 AU
 TOP OF VALENCE BANDS -    BAND    150; K    1; EIG -2.3134563E-01 AU
 BOTTOM OF VIRTUAL BANDS - BAND    151; K    2; EIG -1.6743384E-01 AU
 INDIRECT ENERGY BAND GAP:   0.9058 eV
 BOTTOM OF VIRTUAL BANDS - BAND    151; K    1; EIG -1.6737303E-01 AU
 TTTTTTTTTTTTTTTTTTTTTTTTTTTTTT PDIG        TELAPSE       30.15 TCPU       27.48
 TTTTTTTTTTTTTTTTTTTTTTTTTTTTTT MOQGAD      TELAPSE       30.16 TCPU       27.49
 TTTTTTTTTTTTTTTTTTTTTTTTTTTTTT SHELLXN     TELAPSE       37.03 TCPU       34.22
 TTTTTTTTTTTTTTTTTTTTTTTTTTTTTT MONMO3      TELAPSE       37.05 TCPU       34.24
 NUMERICALLY INTEGRATED DENSITY    149.9999965768    149.9999965768
 TTTTTTTTTTTTTTTTTTTTTTTTTTTTTT NUMDFT      TELAPSE       37.44 TCPU       34.63
 CYC   2 ETOT(AU) -1.558838542040E+04 DETOT  3.49E-01 tst  5.99E-03 PX  1.07E-01
 TTTTTTTTTTTTTTTTTTTTTTTTTTTTTT DIIS        TELAPSE       37.48 TCPU       34.66
 DIIS TEST: 0.70805E+01 AT SCF   CYCLE   2 - DIIS ACTIVE - HISTORY:     2 CYCLES
 TTTTTTTTTTTTTTTTTTTTTTTTTTTTTT FDIK        TELAPSE       37.87 TCPU       35.05

    ALPHA      ELECTRONS
 INSULATING STATE
 TOP OF VALENCE BANDS -    BAND    150; K   71; EIG -1.7950727E-01 AU
 TOP OF VALENCE BANDS -    BAND    150; K    1; EIG -1.8660564E-01 AU
 BOTTOM OF VIRTUAL BANDS - BAND    151; K    1; EIG -1.1398917E-01 AU
 INDIRECT ENERGY BAND GAP:   1.7828 eV

    BETA       ELECTRONS
 INSULATING STATE
 TOP OF VALENCE BANDS -    BAND    150; K   71; EIG -1.7950727E-01 AU
 TOP OF VALENCE BANDS -    BAND    150; K    1; EIG -1.8660564E-01 AU
 BOTTOM OF VIRTUAL BANDS - BAND    151; K    1; EIG -1.1398917E-01 AU
 INDIRECT ENERGY BAND GAP:   1.7828 eV
 TTTTTTTTTTTTTTTTTTTTTTTTTTTTTT PDIG        TELAPSE       38.10 TCPU       35.28
 TTTTTTTTTTTTTTTTTTTTTTTTTTTTTT MOQGAD      TELAPSE       38.10 TCPU       35.28
 TTTTTTTTTTTTTTTTTTTTTTTTTTTTTT SHELLXN     TELAPSE       45.02 TCPU       42.13
 TTTTTTTTTTTTTTTTTTTTTTTTTTTTTT MONMO3      TELAPSE       45.04 TCPU       42.15
 NUMERICALLY INTEGRATED DENSITY    149.9999967367    149.9999967367
 TTTTTTTTTTTTTTTTTTTTTTTTTTTTTT NUMDFT      TELAPSE       45.50 TCPU       42.60
 CYC   3 ETOT(AU) -1.558869177203E+04 DETOT -3.06E-01 tst  5.74E-03 PX  1.20E-01
 TTTTTTTTTTTTTTTTTTTTTTTTTTTTTT DIIS        TELAPSE       45.53 TCPU       42.63
 DIIS TEST: 0.21307E+01 AT SCF   CYCLE   3 - DIIS ACTIVE - HISTORY:     3 CYCLES
 TTTTTTTTTTTTTTTTTTTTTTTTTTTTTT FDIK        TELAPSE       45.94 TCPU       43.04

    ALPHA      ELECTRONS
 INSULATING STATE
 TOP OF VALENCE BANDS -    BAND    150; K  170; EIG -1.8950161E-01 AU
 TOP OF VALENCE BANDS -    BAND    150; K    1; EIG -1.9685831E-01 AU
 BOTTOM OF VIRTUAL BANDS - BAND    151; K    1; EIG -1.3263798E-01 AU
 INDIRECT ENERGY BAND GAP:   1.5473 eV

    BETA       ELECTRONS
 INSULATING STATE
 TOP OF VALENCE BANDS -    BAND    150; K  170; EIG -1.8950161E-01 AU
 TOP OF VALENCE BANDS -    BAND    150; K    1; EIG -1.9685831E-01 AU
 BOTTOM OF VIRTUAL BANDS - BAND    151; K    1; EIG -1.3263798E-01 AU
 INDIRECT ENERGY BAND GAP:   1.5473 eV
 TTTTTTTTTTTTTTTTTTTTTTTTTTTTTT PDIG        TELAPSE       46.21 TCPU       43.31
 TTTTTTTTTTTTTTTTTTTTTTTTTTTTTT MOQGAD      TELAPSE       46.21 TCPU       43.31
 TTTTTTTTTTTTTTTTTTTTTTTTTTTTTT SHELLXN     TELAPSE       53.12 TCPU       50.15
 TTTTTTTTTTTTTTTTTTTTTTTTTTTTTT MONMO3      TELAPSE       53.14 TCPU       50.17
 NUMERICALLY INTEGRATED DENSITY    149.9999967668    149.9999967668
 TTTTTTTTTTTTTTTTTTTTTTTTTTTTTT NUMDFT      TELAPSE       53.59 TCPU       50.62
 CYC   4 ETOT(AU) -1.558885797653E+04 DETOT -1.66E-01 tst  1.23E-03 PX  6.72E-02
 TTTTTTTTTTTTTTTTTTTTTTTTTTTTTT DIIS        TELAPSE       53.62 TCPU       50.65
 DIIS TEST: 0.25073E-01 AT SCF   CYCLE   4 - DIIS ACTIVE - HISTORY:     4 CYCLES
 TTTTTTTTTTTTTTTTTTTTTTTTTTTTTT FDIK        TELAPSE       54.04 TCPU       51.05

    ALPHA      ELECTRONS
 INSULATING STATE
 TOP OF VALENCE BANDS -    BAND    150; K  170; EIG -1.8770631E-01 AU
 TOP OF VALENCE BANDS -    BAND    150; K    1; EIG -1.9729495E-01 AU
 BOTTOM OF VIRTUAL BANDS - BAND    151; K    1; EIG -1.2927875E-01 AU
 INDIRECT ENERGY BAND GAP:   1.5899 eV

    BETA       ELECTRONS
 INSULATING STATE
 TOP OF VALENCE BANDS -    BAND    150; K  170; EIG -1.8770631E-01 AU
 TOP OF VALENCE BANDS -    BAND    150; K    1; EIG -1.9729495E-01 AU
 BOTTOM OF VIRTUAL BANDS - BAND    151; K    1; EIG -1.2927875E-01 AU
 INDIRECT ENERGY BAND GAP:   1.5899 eV
 TTTTTTTTTTTTTTTTTTTTTTTTTTTTTT PDIG        TELAPSE       54.26 TCPU       51.28
 TTTTTTTTTTTTTTTTTTTTTTTTTTTTTT MOQGAD      TELAPSE       54.27 TCPU       51.28
 TTTTTTTTTTTTTTTTTTTTTTTTTTTTTT SHELLXN     TELAPSE       61.29 TCPU       58.24
 TTTTTTTTTTTTTTTTTTTTTTTTTTTTTT MONMO3      TELAPSE       61.31 TCPU       58.25
 NUMERICALLY INTEGRATED DENSITY    149.9999967613    149.9999967613
 TTTTTTTTTTTTTTTTTTTTTTTTTTTTTT NUMDFT      TELAPSE       61.79 TCPU       58.73
 CYC   5 ETOT(AU) -1.558886182911E+04 DETOT -3.85E-03 tst  1.30E-04 PX  1.18E-02
 TTTTTTTTTTTTTTTTTTTTTTTTTTTTTT DIIS        TELAPSE       61.82 TCPU       58.76
 DIIS TEST: 0.11955E-01 AT SCF   CYCLE   5 - DIIS ACTIVE - HISTORY:     5 CYCLES
 TTTTTTTTTTTTTTTTTTTTTTTTTTTTTT FDIK        TELAPSE       62.22 TCPU       59.15

    ALPHA      ELECTRONS
 INSULATING STATE
 TOP OF VALENCE BANDS -    BAND    150; K  170; EIG -1.8719062E-01 AU
 TOP OF VALENCE BANDS -    BAND    150; K    1; EIG -1.9631381E-01 AU
 BOTTOM OF VIRTUAL BANDS - BAND    151; K    1; EIG -1.2839444E-01 AU
 INDIRECT ENERGY BAND GAP:   1.5999 eV

    BETA       ELECTRONS
 INSULATING STATE
 TOP OF VALENCE BANDS -    BAND    150; K  170; EIG -1.8719062E-01 AU
 TOP OF VALENCE BANDS -    BAND    150; K    1; EIG -1.9631381E-01 AU
 BOTTOM OF VIRTUAL BANDS - BAND    151; K    1; EIG -1.2839444E-01 AU
 INDIRECT ENERGY BAND GAP:   1.5999 eV
 TTTTTTTTTTTTTTTTTTTTTTTTTTTTTT PDIG        TELAPSE       62.47 TCPU       59.40
 TTTTTTTTTTTTTTTTTTTTTTTTTTTTTT MOQGAD      TELAPSE       62.48 TCPU       59.40
 TTTTTTTTTTTTTTTTTTTTTTTTTTTTTT SHELLXN     TELAPSE       69.43 TCPU       66.17
 TTTTTTTTTTTTTTTTTTTTTTTTTTTTTT MONMO3      TELAPSE       69.45 TCPU       66.19
 NUMERICALLY INTEGRATED DENSITY    149.9999967949    149.9999967949
 TTTTTTTTTTTTTTTTTTTTTTTTTTTTTT NUMDFT      TELAPSE       69.84 TCPU       66.58
 CYC   6 ETOT(AU) -1.558886359844E+04 DETOT -1.77E-03 tst  5.80E-05 PX  6.18E-03
 TTTTTTTTTTTTTTTTTTTTTTTTTTTTTT DIIS        TELAPSE       69.87 TCPU       66.61
 DIIS TEST: 0.10326E-02 AT SCF   CYCLE   6 - DIIS ACTIVE - HISTORY:     6 CYCLES
 TTTTTTTTTTTTTTTTTTTTTTTTTTTTTT FDIK        TELAPSE       70.28 TCPU       67.01

    ALPHA      ELECTRONS
 INSULATING STATE
 TOP OF VALENCE BANDS -    BAND    150; K  170; EIG -1.8682900E-01 AU
 TOP OF VALENCE BANDS -    BAND    150; K    1; EIG -1.9591603E-01 AU
 BOTTOM OF VIRTUAL BANDS - BAND    151; K    1; EIG -1.2792307E-01 AU
 INDIRECT ENERGY BAND GAP:   1.6029 eV

    BETA       ELECTRONS
 INSULATING STATE
 TOP OF VALENCE BANDS -    BAND    150; K  170; EIG -1.8682900E-01 AU
 TOP OF VALENCE BANDS -    BAND    150; K    1; EIG -1.9591603E-01 AU
 BOTTOM OF VIRTUAL BANDS - BAND    151; K    1; EIG -1.2792307E-01 AU
 INDIRECT ENERGY BAND GAP:   1.6029 eV
 TTTTTTTTTTTTTTTTTTTTTTTTTTTTTT PDIG        TELAPSE       70.50 TCPU       67.24
 TTTTTTTTTTTTTTTTTTTTTTTTTTTTTT MOQGAD      TELAPSE       70.51 TCPU       67.24
 TTTTTTTTTTTTTTTTTTTTTTTTTTTTTT SHELLXN     TELAPSE       77.43 TCPU       74.10
 TTTTTTTTTTTTTTTTTTTTTTTTTTTTTT MONMO3      TELAPSE       77.45 TCPU       74.12
 NUMERICALLY INTEGRATED DENSITY    149.9999968053    149.9999968053
 TTTTTTTTTTTTTTTTTTTTTTTTTTTTTT NUMDFT      TELAPSE       77.84 TCPU       74.50
 CYC   7 ETOT(AU) -1.558886378193E+04 DETOT -1.83E-04 tst  1.57E-05 PX  3.30E-03
 TTTTTTTTTTTTTTTTTTTTTTTTTTTTTT DIIS        TELAPSE       77.87 TCPU       74.53
 DIIS TEST: 0.39451E-03 AT SCF   CYCLE   7 - DIIS ACTIVE - HISTORY:     7 CYCLES
 TTTTTTTTTTTTTTTTTTTTTTTTTTTTTT FDIK        TELAPSE       78.28 TCPU       74.94

    ALPHA      ELECTRONS
 INSULATING STATE
 TOP OF VALENCE BANDS -    BAND    150; K  170; EIG -1.8666056E-01 AU
 TOP OF VALENCE BANDS -    BAND    150; K    1; EIG -1.9605019E-01 AU
 BOTTOM OF VIRTUAL BANDS - BAND    151; K    1; EIG -1.2818038E-01 AU
 INDIRECT ENERGY BAND GAP:   1.5913 eV

    BETA       ELECTRONS
 INSULATING STATE
 TOP OF VALENCE BANDS -    BAND    150; K  170; EIG -1.8666056E-01 AU
 TOP OF VALENCE BANDS -    BAND    150; K    1; EIG -1.9605019E-01 AU
 BOTTOM OF VIRTUAL BANDS - BAND    151; K    1; EIG -1.2818038E-01 AU
 INDIRECT ENERGY BAND GAP:   1.5913 eV
 TTTTTTTTTTTTTTTTTTTTTTTTTTTTTT PDIG        TELAPSE       78.51 TCPU       75.17
 TTTTTTTTTTTTTTTTTTTTTTTTTTTTTT MOQGAD      TELAPSE       78.51 TCPU       75.17
 TTTTTTTTTTTTTTTTTTTTTTTTTTTTTT SHELLXN     TELAPSE       85.43 TCPU       82.01
 TTTTTTTTTTTTTTTTTTTTTTTTTTTTTT MONMO3      TELAPSE       85.44 TCPU       82.03
 NUMERICALLY INTEGRATED DENSITY    149.9999968070    149.9999968070
 TTTTTTTTTTTTTTTTTTTTTTTTTTTTTT NUMDFT      TELAPSE       85.84 TCPU       82.42
 CYC   8 ETOT(AU) -1.558886382684E+04 DETOT -4.49E-05 tst  1.84E-06 PX  8.06E-04
 TTTTTTTTTTTTTTTTTTTTTTTTTTTTTT DIIS        TELAPSE       85.87 TCPU       82.45
 DIIS TEST: 0.50544E-05 AT SCF   CYCLE   8 - DIIS ACTIVE - HISTORY:     8 CYCLES
 TTTTTTTTTTTTTTTTTTTTTTTTTTTTTT FDIK        TELAPSE       86.28 TCPU       82.85

    ALPHA      ELECTRONS
 INSULATING STATE
 TOP OF VALENCE BANDS -    BAND    150; K  170; EIG -1.8662033E-01 AU
 TOP OF VALENCE BANDS -    BAND    150; K    1; EIG -1.9604181E-01 AU
 BOTTOM OF VIRTUAL BANDS - BAND    151; K    1; EIG -1.2825492E-01 AU
 INDIRECT ENERGY BAND GAP:   1.5882 eV

    BETA       ELECTRONS
 INSULATING STATE
 TOP OF VALENCE BANDS -    BAND    150; K  170; EIG -1.8662033E-01 AU
 TOP OF VALENCE BANDS -    BAND    150; K    1; EIG -1.9604181E-01 AU
 BOTTOM OF VIRTUAL BANDS - BAND    151; K    1; EIG -1.2825492E-01 AU
 INDIRECT ENERGY BAND GAP:   1.5882 eV
 TTTTTTTTTTTTTTTTTTTTTTTTTTTTTT PDIG        TELAPSE       86.51 TCPU       83.09
 TTTTTTTTTTTTTTTTTTTTTTTTTTTTTT MOQGAD      TELAPSE       86.52 TCPU       83.09
 TTTTTTTTTTTTTTTTTTTTTTTTTTTTTT SHELLXN     TELAPSE       93.40 TCPU       89.90
 TTTTTTTTTTTTTTTTTTTTTTTTTTTTTT MONMO3      TELAPSE       93.41 TCPU       89.91
 NUMERICALLY INTEGRATED DENSITY    149.9999968075    149.9999968075
 TTTTTTTTTTTTTTTTTTTTTTTTTTTTTT NUMDFT      TELAPSE       93.81 TCPU       90.30
 CYC   9 ETOT(AU) -1.558886382806E+04 DETOT -1.22E-06 tst  8.68E-08 PX  2.43E-04
 TTTTTTTTTTTTTTTTTTTTTTTTTTTTTT DIIS        TELAPSE       93.84 TCPU       90.33
 DIIS TEST: 0.10136E-05 AT SCF   CYCLE   9 - DIIS ACTIVE - HISTORY:     9 CYCLES
 TTTTTTTTTTTTTTTTTTTTTTTTTTTTTT FDIK        TELAPSE       94.26 TCPU       90.74

    ALPHA      ELECTRONS
 INSULATING STATE
 TOP OF VALENCE BANDS -    BAND    150; K  170; EIG -1.8661293E-01 AU
 TOP OF VALENCE BANDS -    BAND    150; K    1; EIG -1.9603914E-01 AU
 BOTTOM OF VIRTUAL BANDS - BAND    151; K    1; EIG -1.2825734E-01 AU
 INDIRECT ENERGY BAND GAP:   1.5879 eV

    BETA       ELECTRONS
 INSULATING STATE
 TOP OF VALENCE BANDS -    BAND    150; K  170; EIG -1.8661293E-01 AU
 TOP OF VALENCE BANDS -    BAND    150; K    1; EIG -1.9603914E-01 AU
 BOTTOM OF VIRTUAL BANDS - BAND    151; K    1; EIG -1.2825734E-01 AU
 INDIRECT ENERGY BAND GAP:   1.5879 eV
 TTTTTTTTTTTTTTTTTTTTTTTTTTTTTT PDIG        TELAPSE       94.49 TCPU       90.97
 TTTTTTTTTTTTTTTTTTTTTTTTTTTTTT MOQGAD      TELAPSE       94.49 TCPU       90.98
 TTTTTTTTTTTTTTTTTTTTTTTTTTTTTT SHELLXN     TELAPSE      101.44 TCPU       97.86
 TTTTTTTTTTTTTTTTTTTTTTTTTTTTTT MONMO3      TELAPSE      101.46 TCPU       97.88
 NUMERICALLY INTEGRATED DENSITY    149.9999968075    149.9999968075
 TTTTTTTTTTTTTTTTTTTTTTTTTTTTTT NUMDFT      TELAPSE      101.95 TCPU       98.36
 CYC  10 ETOT(AU) -1.558886382813E+04 DETOT -7.37E-08 tst  1.55E-08 PX  1.60E-04
 TTTTTTTTTTTTTTTTTTTTTTTTTTTTTT DIIS        TELAPSE      101.98 TCPU       98.40
 DIIS TEST: 0.16056E-06 AT SCF   CYCLE  10 - DIIS ACTIVE - HISTORY:    10 CYCLES
 TTTTTTTTTTTTTTTTTTTTTTTTTTTTTT FDIK        TELAPSE      102.41 TCPU       98.81

    ALPHA      ELECTRONS
 INSULATING STATE
 TOP OF VALENCE BANDS -    BAND    150; K  170; EIG -1.8661312E-01 AU
 TOP OF VALENCE BANDS -    BAND    150; K    1; EIG -1.9605080E-01 AU
 BOTTOM OF VIRTUAL BANDS - BAND    151; K    1; EIG -1.2827331E-01 AU
 INDIRECT ENERGY BAND GAP:   1.5875 eV

    BETA       ELECTRONS
 INSULATING STATE
 TOP OF VALENCE BANDS -    BAND    150; K  170; EIG -1.8661312E-01 AU
 TOP OF VALENCE BANDS -    BAND    150; K    1; EIG -1.9605080E-01 AU
 BOTTOM OF VIRTUAL BANDS - BAND    151; K    1; EIG -1.2827331E-01 AU
 INDIRECT ENERGY BAND GAP:   1.5875 eV
 TTTTTTTTTTTTTTTTTTTTTTTTTTTTTT PDIG        TELAPSE      102.64 TCPU       99.04
 TTTTTTTTTTTTTTTTTTTTTTTTTTTTTT MOQGAD      TELAPSE      102.64 TCPU       99.05
 TTTTTTTTTTTTTTTTTTTTTTTTTTTTTT SHELLXN     TELAPSE      109.63 TCPU      105.87
 TTTTTTTTTTTTTTTTTTTTTTTTTTTTTT MONMO3      TELAPSE      109.64 TCPU      105.89
 NUMERICALLY INTEGRATED DENSITY    149.9999968076    149.9999968076
 TTTTTTTTTTTTTTTTTTTTTTTTTTTTTT NUMDFT      TELAPSE      110.04 TCPU      106.28
 CYC  11 ETOT(AU) -1.558886382860E+04 DETOT -4.66E-07 tst  8.09E-09 PX  1.17E-04
 TTTTTTTTTTTTTTTTTTTTTTTTTTTTTT DIIS        TELAPSE      110.07 TCPU      106.31
 DIIS TEST: 0.33017E-07 AT SCF   CYCLE  11 - DIIS ACTIVE - HISTORY:    11 CYCLES
 TTTTTTTTTTTTTTTTTTTTTTTTTTTTTT FDIK        TELAPSE      110.48 TCPU      106.71

    ALPHA      ELECTRONS
 INSULATING STATE
 TOP OF VALENCE BANDS -    BAND    150; K  170; EIG -1.8661622E-01 AU
 TOP OF VALENCE BANDS -    BAND    150; K    1; EIG -1.9605775E-01 AU
 BOTTOM OF VIRTUAL BANDS - BAND    151; K    1; EIG -1.2827968E-01 AU
 INDIRECT ENERGY BAND GAP:   1.5874 eV

    BETA       ELECTRONS
 INSULATING STATE
 TOP OF VALENCE BANDS -    BAND    150; K  170; EIG -1.8661622E-01 AU
 TOP OF VALENCE BANDS -    BAND    150; K    1; EIG -1.9605775E-01 AU
 BOTTOM OF VIRTUAL BANDS - BAND    151; K    1; EIG -1.2827968E-01 AU
 INDIRECT ENERGY BAND GAP:   1.5874 eV
 TTTTTTTTTTTTTTTTTTTTTTTTTTTTTT PDIG        TELAPSE      110.71 TCPU      106.94
 TTTTTTTTTTTTTTTTTTTTTTTTTTTTTT MOQGAD      TELAPSE      110.71 TCPU      106.94
 TTTTTTTTTTTTTTTTTTTTTTTTTTTTTT SHELLXN     TELAPSE      117.58 TCPU      113.74
 TTTTTTTTTTTTTTTTTTTTTTTTTTTTTT MONMO3      TELAPSE      117.60 TCPU      113.76
 NUMERICALLY INTEGRATED DENSITY    149.9999968077    149.9999968077
 TTTTTTTTTTTTTTTTTTTTTTTTTTTTTT NUMDFT      TELAPSE      118.05 TCPU      114.21
 CYC  12 ETOT(AU) -1.558886382889E+04 DETOT -2.87E-07 tst  2.36E-09 PX  5.71E-05
 TTTTTTTTTTTTTTTTTTTTTTTTTTTTTT DIIS        TELAPSE      118.08 TCPU      114.24
 DIIS TEST: 0.62083E-08 AT SCF   CYCLE  12 - DIIS ACTIVE - HISTORY:    12 CYCLES
 TTTTTTTTTTTTTTTTTTTTTTTTTTTTTT FDIK        TELAPSE      118.51 TCPU      114.65

    ALPHA      ELECTRONS
 INSULATING STATE
 TOP OF VALENCE BANDS -    BAND    150; K  170; EIG -1.8661714E-01 AU
 TOP OF VALENCE BANDS -    BAND    150; K    1; EIG -1.9606019E-01 AU
 BOTTOM OF VIRTUAL BANDS - BAND    151; K    1; EIG -1.2828087E-01 AU
 INDIRECT ENERGY BAND GAP:   1.5874 eV

    BETA       ELECTRONS
 INSULATING STATE
 TOP OF VALENCE BANDS -    BAND    150; K  170; EIG -1.8661714E-01 AU
 TOP OF VALENCE BANDS -    BAND    150; K    1; EIG -1.9606019E-01 AU
 BOTTOM OF VIRTUAL BANDS - BAND    151; K    1; EIG -1.2828087E-01 AU
 INDIRECT ENERGY BAND GAP:   1.5874 eV
 TTTTTTTTTTTTTTTTTTTTTTTTTTTTTT PDIG        TELAPSE      118.74 TCPU      114.88
 TTTTTTTTTTTTTTTTTTTTTTTTTTTTTT MOQGAD      TELAPSE      118.74 TCPU      114.89
 TTTTTTTTTTTTTTTTTTTTTTTTTTTTTT SHELLXN     TELAPSE      125.62 TCPU      121.63
 TTTTTTTTTTTTTTTTTTTTTTTTTTTTTT MONMO3      TELAPSE      125.64 TCPU      121.65
 NUMERICALLY INTEGRATED DENSITY    149.9999968077    149.9999968077
 TTTTTTTTTTTTTTTTTTTTTTTTTTTTTT NUMDFT      TELAPSE      126.12 TCPU      122.12
 CYC  13 ETOT(AU) -1.558886382907E+04 DETOT -1.83E-07 tst  2.07E-10 PX  1.93E-05
 TTTTTTTTTTTTTTTTTTTTTTTTTTTTTT DIIS        TELAPSE      126.15 TCPU      122.15
 DIIS TEST: 0.39612E-09 AT SCF   CYCLE  13 - DIIS ACTIVE - HISTORY:    13 CYCLES
 TTTTTTTTTTTTTTTTTTTTTTTTTTTTTT FDIK        TELAPSE      126.55 TCPU      122.54

    ALPHA      ELECTRONS
 INSULATING STATE
 TOP OF VALENCE BANDS -    BAND    150; K  170; EIG -1.8661758E-01 AU
 TOP OF VALENCE BANDS -    BAND    150; K    1; EIG -1.9606073E-01 AU
 BOTTOM OF VIRTUAL BANDS - BAND    151; K    1; EIG -1.2828063E-01 AU
 INDIRECT ENERGY BAND GAP:   1.5874 eV

    BETA       ELECTRONS
 INSULATING STATE
 TOP OF VALENCE BANDS -    BAND    150; K  170; EIG -1.8661758E-01 AU
 TOP OF VALENCE BANDS -    BAND    150; K    1; EIG -1.9606073E-01 AU
 BOTTOM OF VIRTUAL BANDS - BAND    151; K    1; EIG -1.2828063E-01 AU
 INDIRECT ENERGY BAND GAP:   1.5874 eV
 TTTTTTTTTTTTTTTTTTTTTTTTTTTTTT PDIG        TELAPSE      126.78 TCPU      122.77
 TTTTTTTTTTTTTTTTTTTTTTTTTTTTTT MOQGAD      TELAPSE      126.78 TCPU      122.77
 TTTTTTTTTTTTTTTTTTTTTTTTTTTTTT SHELLXN     TELAPSE      133.67 TCPU      129.51
 TTTTTTTTTTTTTTTTTTTTTTTTTTTTTT MONMO3      TELAPSE      133.69 TCPU      129.53
 NUMERICALLY INTEGRATED DENSITY    149.9999968077    149.9999968077
 TTTTTTTTTTTTTTTTTTTTTTTTTTTTTT NUMDFT      TELAPSE      134.16 TCPU      129.99
 CYC  14 ETOT(AU) -1.558886382912E+04 DETOT -4.47E-08 tst  1.70E-11 PX  3.94E-06
 TTTTTTTTTTTTTTTTTTTTTTTTTTTTTT DIIS        TELAPSE      134.19 TCPU      130.02
 DIIS TEST: 0.44178E-10 AT SCF   CYCLE  14 - DIIS ACTIVE - HISTORY:    14 CYCLES
 TTTTTTTTTTTTTTTTTTTTTTTTTTTTTT FDIK        TELAPSE      134.61 TCPU      130.44

    ALPHA      ELECTRONS
 INSULATING STATE
 TOP OF VALENCE BANDS -    BAND    150; K  170; EIG -1.8661756E-01 AU
 TOP OF VALENCE BANDS -    BAND    150; K    1; EIG -1.9606063E-01 AU
 BOTTOM OF VIRTUAL BANDS - BAND    151; K    1; EIG -1.2828034E-01 AU
 INDIRECT ENERGY BAND GAP:   1.5874 eV

    BETA       ELECTRONS
 INSULATING STATE
 TOP OF VALENCE BANDS -    BAND    150; K  170; EIG -1.8661756E-01 AU
 TOP OF VALENCE BANDS -    BAND    150; K    1; EIG -1.9606063E-01 AU
 BOTTOM OF VIRTUAL BANDS - BAND    151; K    1; EIG -1.2828034E-01 AU
 INDIRECT ENERGY BAND GAP:   1.5874 eV
 TTTTTTTTTTTTTTTTTTTTTTTTTTTTTT PDIG        TELAPSE      134.87 TCPU      130.70
 TTTTTTTTTTTTTTTTTTTTTTTTTTTTTT MOQGAD      TELAPSE      134.88 TCPU      130.70
 TTTTTTTTTTTTTTTTTTTTTTTTTTTTTT SHELLXN     TELAPSE      141.81 TCPU      137.57
 TTTTTTTTTTTTTTTTTTTTTTTTTTTTTT MONMO3      TELAPSE      141.82 TCPU      137.58
 NUMERICALLY INTEGRATED DENSITY    149.9999968077    149.9999968077
 TTTTTTTTTTTTTTTTTTTTTTTTTTTTTT NUMDFT      TELAPSE      142.22 TCPU      137.97
 CYC  15 ETOT(AU) -1.558886382913E+04 DETOT -1.87E-08 tst  2.61E-12 PX  1.61E-06
 TTTTTTTTTTTTTTTTTTTTTTTTTTTTTT DIIS        TELAPSE      142.25 TCPU      138.00
 DIIS TEST: 0.11826E-10 AT SCF   CYCLE  15 - DIIS ACTIVE - HISTORY:    15 CYCLES
 TTTTTTTTTTTTTTTTTTTTTTTTTTTTTT FDIK        TELAPSE      142.66 TCPU      138.41

    ALPHA      ELECTRONS
 INSULATING STATE
 TOP OF VALENCE BANDS -    BAND    150; K  170; EIG -1.8661753E-01 AU
 TOP OF VALENCE BANDS -    BAND    150; K    1; EIG -1.9606060E-01 AU
 BOTTOM OF VIRTUAL BANDS - BAND    151; K    1; EIG -1.2828015E-01 AU
 INDIRECT ENERGY BAND GAP:   1.5874 eV

    BETA       ELECTRONS
 INSULATING STATE
 TOP OF VALENCE BANDS -    BAND    150; K  170; EIG -1.8661753E-01 AU
 TOP OF VALENCE BANDS -    BAND    150; K    1; EIG -1.9606060E-01 AU
 BOTTOM OF VIRTUAL BANDS - BAND    151; K    1; EIG -1.2828015E-01 AU
 INDIRECT ENERGY BAND GAP:   1.5874 eV
 TTTTTTTTTTTTTTTTTTTTTTTTTTTTTT PDIG        TELAPSE      142.89 TCPU      138.63
 TTTTTTTTTTTTTTTTTTTTTTTTTTTTTT MOQGAD      TELAPSE      142.89 TCPU      138.64
 TTTTTTTTTTTTTTTTTTTTTTTTTTTTTT SHELLXN     TELAPSE      149.76 TCPU      145.44
 TTTTTTTTTTTTTTTTTTTTTTTTTTTTTT MONMO3      TELAPSE      149.77 TCPU      145.46
 NUMERICALLY INTEGRATED DENSITY    149.9999968077    149.9999968077
 TTTTTTTTTTTTTTTTTTTTTTTTTTTTTT NUMDFT      TELAPSE      150.16 TCPU      145.84
 CYC  16 ETOT(AU) -1.558886382914E+04 DETOT -9.15E-09 tst  9.90E-13 PX  9.45E-07
 TTTTTTTTTTTTTTTTTTTTTTTTTTTTTT DIIS        TELAPSE      150.19 TCPU      145.87
 DIIS TEST: 0.88061E-12 AT SCF   CYCLE  16 - DIIS ACTIVE - HISTORY:    15 CYCLES
 TTTTTTTTTTTTTTTTTTTTTTTTTTTTTT FDIK        TELAPSE      150.61 TCPU      146.28

    ALPHA      ELECTRONS
 INSULATING STATE
 TOP OF VALENCE BANDS -    BAND    150; K  170; EIG -1.8661755E-01 AU
 TOP OF VALENCE BANDS -    BAND    150; K    1; EIG -1.9606060E-01 AU
 BOTTOM OF VIRTUAL BANDS - BAND    151; K    1; EIG -1.2828011E-01 AU
 INDIRECT ENERGY BAND GAP:   1.5874 eV

    BETA       ELECTRONS
 INSULATING STATE
 TOP OF VALENCE BANDS -    BAND    150; K  170; EIG -1.8661755E-01 AU
 TOP OF VALENCE BANDS -    BAND    150; K    1; EIG -1.9606060E-01 AU
 BOTTOM OF VIRTUAL BANDS - BAND    151; K    1; EIG -1.2828011E-01 AU
 INDIRECT ENERGY BAND GAP:   1.5874 eV
 TTTTTTTTTTTTTTTTTTTTTTTTTTTTTT PDIG        TELAPSE      150.83 TCPU      146.50
 TTTTTTTTTTTTTTTTTTTTTTTTTTTTTT MOQGAD      TELAPSE      150.84 TCPU      146.50
 TTTTTTTTTTTTTTTTTTTTTTTTTTTTTT SHELLXN     TELAPSE      157.71 TCPU      153.32
 TTTTTTTTTTTTTTTTTTTTTTTTTTTTTT MONMO3      TELAPSE      157.73 TCPU      153.34
 NUMERICALLY INTEGRATED DENSITY    149.9999968077    149.9999968077
 TTTTTTTTTTTTTTTTTTTTTTTTTTTTTT NUMDFT      TELAPSE      158.12 TCPU      153.72
 CYC  17 ETOT(AU) -1.558886382915E+04 DETOT -3.59E-09 tst  1.39E-13 PX  2.90E-07
 TTTTTTTTTTTTTTTTTTTTTTTTTTTTTT DIIS        TELAPSE      158.15 TCPU      153.75
 DIIS TEST: 0.86496E-13 AT SCF   CYCLE  17 - DIIS ACTIVE - HISTORY:    16 CYCLES
 TTTTTTTTTTTTTTTTTTTTTTTTTTTTTT FDIK        TELAPSE      158.59 TCPU      154.18

    ALPHA      ELECTRONS
 INSULATING STATE
 TOP OF VALENCE BANDS -    BAND    150; K  170; EIG -1.8661756E-01 AU
 TOP OF VALENCE BANDS -    BAND    150; K    1; EIG -1.9606060E-01 AU
 BOTTOM OF VIRTUAL BANDS - BAND    151; K    1; EIG -1.2828010E-01 AU
 INDIRECT ENERGY BAND GAP:   1.5874 eV

    BETA       ELECTRONS
 INSULATING STATE
 TOP OF VALENCE BANDS -    BAND    150; K  170; EIG -1.8661756E-01 AU
 TOP OF VALENCE BANDS -    BAND    150; K    1; EIG -1.9606060E-01 AU
 BOTTOM OF VIRTUAL BANDS - BAND    151; K    1; EIG -1.2828010E-01 AU
 INDIRECT ENERGY BAND GAP:   1.5874 eV
 TTTTTTTTTTTTTTTTTTTTTTTTTTTTTT PDIG        TELAPSE      158.82 TCPU      154.41
 TTTTTTTTTTTTTTTTTTTTTTTTTTTTTT MOQGAD      TELAPSE      158.83 TCPU      154.42
 TTTTTTTTTTTTTTTTTTTTTTTTTTTTTT SHELLXN     TELAPSE      165.70 TCPU      161.22
 TTTTTTTTTTTTTTTTTTTTTTTTTTTTTT MONMO3      TELAPSE      165.72 TCPU      161.24
 NUMERICALLY INTEGRATED DENSITY    149.9999968077    149.9999968077
 TTTTTTTTTTTTTTTTTTTTTTTTTTTTTT NUMDFT      TELAPSE      166.11 TCPU      161.63
 CYC  18 ETOT(AU) -1.558886382915E+04 DETOT -1.20E-09 tst  1.54E-14 PX  8.67E-08
 TTTTTTTTTTTTTTTTTTTTTTTTTTTTTT DIIS        TELAPSE      166.14 TCPU      161.66
 DIIS TEST: 0.13060E-13 AT SCF   CYCLE  18 - DIIS ACTIVE - HISTORY:    17 CYCLES
 TTTTTTTTTTTTTTTTTTTTTTTTTTTTTT FDIK        TELAPSE      166.59 TCPU      162.10

    ALPHA      ELECTRONS
 INSULATING STATE
 TOP OF VALENCE BANDS -    BAND    150; K  170; EIG -1.8661755E-01 AU
 TOP OF VALENCE BANDS -    BAND    150; K    1; EIG -1.9606060E-01 AU
 BOTTOM OF VIRTUAL BANDS - BAND    151; K    1; EIG -1.2828010E-01 AU
 INDIRECT ENERGY BAND GAP:   1.5874 eV

    BETA       ELECTRONS
 INSULATING STATE
 TOP OF VALENCE BANDS -    BAND    150; K  170; EIG -1.8661755E-01 AU
 TOP OF VALENCE BANDS -    BAND    150; K    1; EIG -1.9606060E-01 AU
 BOTTOM OF VIRTUAL BANDS - BAND    151; K    1; EIG -1.2828010E-01 AU
 INDIRECT ENERGY BAND GAP:   1.5874 eV
 TTTTTTTTTTTTTTTTTTTTTTTTTTTTTT PDIG        TELAPSE      166.84 TCPU      162.34
 TTTTTTTTTTTTTTTTTTTTTTTTTTTTTT MOQGAD      TELAPSE      166.84 TCPU      162.35
 TTTTTTTTTTTTTTTTTTTTTTTTTTTTTT SHELLXN     TELAPSE      173.77 TCPU      169.20
 TTTTTTTTTTTTTTTTTTTTTTTTTTTTTT MONMO3      TELAPSE      173.79 TCPU      169.21
 NUMERICALLY INTEGRATED DENSITY    149.9999968077    149.9999968077
 TTTTTTTTTTTTTTTTTTTTTTTTTTTTTT NUMDFT      TELAPSE      174.18 TCPU      169.60
 CYC  19 ETOT(AU) -1.558886382915E+04 DETOT -3.13E-10 tst  1.41E-15 PX  3.08E-08
 TTTTTTTTTTTTTTTTTTTTTTTTTTTTTT DIIS        TELAPSE      174.21 TCPU      169.63
 DIIS TEST: 0.12448E-14 AT SCF   CYCLE  19 - DIIS ACTIVE - HISTORY:    18 CYCLES
 TTTTTTTTTTTTTTTTTTTTTTTTTTTTTT FDIK        TELAPSE      174.64 TCPU      170.06

    ALPHA      ELECTRONS
 INSULATING STATE
 TOP OF VALENCE BANDS -    BAND    150; K  170; EIG -1.8661755E-01 AU
 TOP OF VALENCE BANDS -    BAND    150; K    1; EIG -1.9606060E-01 AU
 BOTTOM OF VIRTUAL BANDS - BAND    151; K    1; EIG -1.2828010E-01 AU
 INDIRECT ENERGY BAND GAP:   1.5874 eV

    BETA       ELECTRONS
 INSULATING STATE
 TOP OF VALENCE BANDS -    BAND    150; K  170; EIG -1.8661755E-01 AU
 TOP OF VALENCE BANDS -    BAND    150; K    1; EIG -1.9606060E-01 AU
 BOTTOM OF VIRTUAL BANDS - BAND    151; K    1; EIG -1.2828010E-01 AU
 INDIRECT ENERGY BAND GAP:   1.5874 eV
 TTTTTTTTTTTTTTTTTTTTTTTTTTTTTT PDIG        TELAPSE      174.87 TCPU      170.29
 TTTTTTTTTTTTTTTTTTTTTTTTTTTTTT MOQGAD      TELAPSE      174.88 TCPU      170.29
 TTTTTTTTTTTTTTTTTTTTTTTTTTTTTT SHELLXN     TELAPSE      181.87 TCPU      177.21
 TTTTTTTTTTTTTTTTTTTTTTTTTTTTTT MONMO3      TELAPSE      181.89 TCPU      177.23
 NUMERICALLY INTEGRATED DENSITY    149.9999968077    149.9999968077
 TTTTTTTTTTTTTTTTTTTTTTTTTTTTTT NUMDFT      TELAPSE      182.28 TCPU      177.62
 CYC  20 ETOT(AU) -1.558886382915E+04 DETOT -8.55E-11 tst  1.05E-16 PX  9.69E-09
 TTTTTTTTTTTTTTTTTTTTTTTTTTTTTT DIIS        TELAPSE      182.31 TCPU      177.65
 DIIS TEST: 0.58128E-16 AT SCF   CYCLE  20 - DIIS ACTIVE - HISTORY:    18 CYCLES
 TTTTTTTTTTTTTTTTTTTTTTTTTTTTTT FDIK        TELAPSE      182.81 TCPU      178.15

    ALPHA      ELECTRONS
 INSULATING STATE
 TOP OF VALENCE BANDS -    BAND    150; K  170; EIG -1.8661755E-01 AU
 TOP OF VALENCE BANDS -    BAND    150; K    1; EIG -1.9606060E-01 AU
 BOTTOM OF VIRTUAL BANDS - BAND    151; K    1; EIG -1.2828011E-01 AU
 INDIRECT ENERGY BAND GAP:   1.5874 eV

    BETA       ELECTRONS
 INSULATING STATE
 TOP OF VALENCE BANDS -    BAND    150; K  170; EIG -1.8661755E-01 AU
 TOP OF VALENCE BANDS -    BAND    150; K    1; EIG -1.9606060E-01 AU
 BOTTOM OF VIRTUAL BANDS - BAND    151; K    1; EIG -1.2828011E-01 AU
 INDIRECT ENERGY BAND GAP:   1.5874 eV
 TTTTTTTTTTTTTTTTTTTTTTTTTTTTTT PDIG        TELAPSE      183.04 TCPU      178.37
 TTTTTTTTTTTTTTTTTTTTTTTTTTTTTT MOQGAD      TELAPSE      183.05 TCPU      178.38
 TTTTTTTTTTTTTTTTTTTTTTTTTTTTTT SHELLXN     TELAPSE      189.93 TCPU      185.19
 TTTTTTTTTTTTTTTTTTTTTTTTTTTTTT MONMO3      TELAPSE      189.94 TCPU      185.21
 NUMERICALLY INTEGRATED DENSITY    149.9999968077    149.9999968077
 TTTTTTTTTTTTTTTTTTTTTTTTTTTTTT NUMDFT      TELAPSE      190.36 TCPU      185.62
 CYC  21 ETOT(AU) -1.558886382915E+04 DETOT -1.09E-11 tst  8.11E-18 PX  1.80E-09
 TTTTTTTTTTTTTTTTTTTTTTTTTTTTTT DIIS        TELAPSE      190.39 TCPU      185.65
 DIIS TEST: 0.10302E-16 AT SCF   CYCLE  21 - DIIS ACTIVE - HISTORY:    18 CYCLES
 TTTTTTTTTTTTTTTTTTTTTTTTTTTTTT FDIK        TELAPSE      190.81 TCPU      186.06

    ALPHA      ELECTRONS
 INSULATING STATE
 TOP OF VALENCE BANDS -    BAND    150; K  170; EIG -1.8661755E-01 AU
 TOP OF VALENCE BANDS -    BAND    150; K    1; EIG -1.9606060E-01 AU
 BOTTOM OF VIRTUAL BANDS - BAND    151; K    1; EIG -1.2828011E-01 AU
 INDIRECT ENERGY BAND GAP:   1.5874 eV

    BETA       ELECTRONS
 INSULATING STATE
 TOP OF VALENCE BANDS -    BAND    150; K  170; EIG -1.8661755E-01 AU
 TOP OF VALENCE BANDS -    BAND    150; K    1; EIG -1.9606060E-01 AU
 BOTTOM OF VIRTUAL BANDS - BAND    151; K    1; EIG -1.2828011E-01 AU
 INDIRECT ENERGY BAND GAP:   1.5874 eV
 TTTTTTTTTTTTTTTTTTTTTTTTTTTTTT PDIG        TELAPSE      191.15 TCPU      186.40
 TTTTTTTTTTTTTTTTTTTTTTTTTTTTTT MOQGAD      TELAPSE      191.15 TCPU      186.40
 TTTTTTTTTTTTTTTTTTTTTTTTTTTTTT SHELLXN     TELAPSE      198.05 TCPU      193.23
 TTTTTTTTTTTTTTTTTTTTTTTTTTTTTT MONMO3      TELAPSE      198.06 TCPU      193.25
 NUMERICALLY INTEGRATED DENSITY    149.9999968077    149.9999968077
 TTTTTTTTTTTTTTTTTTTTTTTTTTTTTT NUMDFT      TELAPSE      198.55 TCPU      193.73
 CYC  22 ETOT(AU) -1.558886382915E+04 DETOT  1.82E-12 tst  1.44E-18 PX  8.83E-10
 TTTTTTTTTTTTTTTTTTTTTTTTTTTTTT DIIS        TELAPSE      198.58 TCPU      193.76
 DIIS TEST: 0.22647E-17 AT SCF   CYCLE  22 - DIIS ACTIVE - HISTORY:    19 CYCLES
 TTTTTTTTTTTTTTTTTTTTTTTTTTTTTT FDIK        TELAPSE      199.01 TCPU      194.18

    ALPHA      ELECTRONS
 INSULATING STATE
 TOP OF VALENCE BANDS -    BAND    150; K  170; EIG -1.8661755E-01 AU
 TOP OF VALENCE BANDS -    BAND    150; K    1; EIG -1.9606060E-01 AU
 BOTTOM OF VIRTUAL BANDS - BAND    151; K    1; EIG -1.2828011E-01 AU
 INDIRECT ENERGY BAND GAP:   1.5874 eV

    BETA       ELECTRONS
 INSULATING STATE
 TOP OF VALENCE BANDS -    BAND    150; K  170; EIG -1.8661755E-01 AU
 TOP OF VALENCE BANDS -    BAND    150; K    1; EIG -1.9606060E-01 AU
 BOTTOM OF VIRTUAL BANDS - BAND    151; K    1; EIG -1.2828011E-01 AU
 INDIRECT ENERGY BAND GAP:   1.5874 eV
 TTTTTTTTTTTTTTTTTTTTTTTTTTTTTT PDIG        TELAPSE      199.24 TCPU      194.41
 TTTTTTTTTTTTTTTTTTTTTTTTTTTTTT MOQGAD      TELAPSE      199.25 TCPU      194.42
 TTTTTTTTTTTTTTTTTTTTTTTTTTTTTT SHELLXN     TELAPSE      206.12 TCPU      201.23
 ::: PSEUDO TOTAL   ENERGY                        -1.5093623317602E+04
 ::: VIRIAL COEFFICIENT                            1.0155521055186E+00
 TTTTTTTTTTTTTTTTTTTTTTTTTTTTTT MONMO3      TELAPSE      206.14 TCPU      201.25
 NUMERICALLY INTEGRATED DENSITY    149.9999968077    149.9999968077
 EXCHANGE ENERGY: -0.481215294928E+03  CORRELATION ENERGY: -0.140252166179E+02
 TTTTTTTTTTTTTTTTTTTTTTTTTTTTTT NUMDFT      TELAPSE      206.55 TCPU      201.65
 CYC  23 ETOT(AU) -1.558886382915E+04 DETOT  1.82E-12 tst  1.09E-19 PX  8.83E-10

 == SCF ENDED - CONVERGENCE ON ENERGY      E(AU) -1.5588863829148E+04 CYCLES  23


 ENERGY EXPRESSION=HARTREE+FOCK EXCH*0.25000+(PBE        EXCH)*0.75000+PBE        CORR


 TOTAL ENERGY(DFT)(AU)( 23) -1.5588863829148E+04 DE 1.8E-12 tester 1.1E-19
 TTTTTTTTTTTTTTTTTTTTTTTTTTTTTT EDFT        TELAPSE      206.56 TCPU      201.66

 *******************************************************************************
 *                             FORCE CALCULATION                               *
 *******************************************************************************

 TTTTTTTTTTTTTTTTTTTTTTTTTTTTTT NUMDFG      TELAPSE      207.36 TCPU      202.45
 INFORMATION **** EXCPOG **** EXCH. BIPO BUFFER LENGTH (WORDS) =    10603080
 INFORMATION **** GENPOG **** BIPO BUFFER LENGTH (WORDS) =     2153000
 TTTTTTTTTTTTTTTTTTTTTTTTTTTTTT SHELXG      TELAPSE      252.81 TCPU      247.52

 CARTESIAN FORCES IN HARTREE/BOHR (ANALYTICAL)
   ATOM                     X                   Y                   Z
   1  26             6.939045991089E-03 -2.602786400304E-03  5.824595142672E-03
   2  26            -6.939045991107E-03 -2.602786400235E-03 -5.824595142780E-03
   3  26            -6.939045991107E-03  2.602786400272E-03 -5.824595142720E-03
   4  26             6.939045991116E-03  2.602786400255E-03  5.824595142791E-03
   5  33            -1.004585310310E-03  6.758850523993E-03  2.623903512835E-03
   6  33             1.004585310264E-03  6.758850523928E-03 -2.623903512728E-03
   7  33             1.004585310325E-03 -6.758850524021E-03 -2.623903512784E-03
   8  33            -1.004585310270E-03 -6.758850523924E-03  2.623903512702E-03
   9  16            -4.311264375761E-03  1.137590055906E-02  2.115668292907E-03
  10  16             4.311264375751E-03  1.137590055903E-02 -2.115668292918E-03
  11  16             4.311264375753E-03 -1.137590055904E-02 -2.115668292903E-03
  12  16            -4.311264375745E-03 -1.137590055902E-02  2.115668292924E-03

 RESULTANT FORCE    -1.332267629550E-15  1.554312234475E-15 -1.332267629550E-15

 ATOMIC PART

 SYMMETRY ALLOWED FORCES (ANALYTICAL) (DIRECTION, FORCE)

    1  1.3878092E-02    2 -5.2055728E-03    3  1.1649190E-02    4 -2.0091706E-03
    5  1.3517701E-02    6  5.2478070E-03    7 -8.6225288E-03    8  2.2751801E-02
    9  4.2313366E-03

 CELL PART

 GRADIENT WITH RESPECT TO THE CELL PARAMETER IN HARTREE/BOHR
ORDER: -D/DA1X, -D/DA1Y, -D/DA1Z
       -D/DA2X, -D/DA2Y, -D/DA2Z
       -D/DA3X, -D/DA3Y, -D/DA3Z
 -0.213515383268E-01 -0.115569190383E-13 -0.112289514715E-01
  0.126786355955E-14  0.343848290669E-03  0.155658111940E-13
 -0.370234622416E-02  0.202271374179E-13 -0.217473445157E-01

STRESS TENSOR, IN HARTREE/BOHR^3:
ORDER: 11 12 13
       21 22 23
       31 32 33
  0.183712575348E-03 -0.114877351917E-16  0.316595420862E-04
  0.175169689986E-15 -0.311933342908E-05 -0.172966510854E-15
  0.291650128130E-04 -0.141191821952E-15  0.185966121824E-03

STRESS TENSOR DOES NOT CORRESPOND TO
HYDROSTATIC PRESSURE, NO PRESSURE COMPUTED!

 SYMMETRY ALLOWED FORCES (ANALYTICAL) (DIRECTION, FORCE)

    1 -2.3926275E-02    2 -8.3911872E-03    3  1.5353693E-02    4 -5.0667873E-03
 TTTTTTTTTTTTTTTTTTTTTTTTTTTTTT TOTGRA      TELAPSE      253.27 TCPU      247.98
 INFORMATION **** optc001 **** GEOMETRY OUTPUT FILE
 CLASSICAL MODEL (SCHLEGEL) USED AS INITIAL HESSIAN MATRIX
 REFERENCE GEOMETRY DEFINED

 MAX GRADIENT      0.023926  THRESHOLD              0.000045 CONVERGED NO
 RMS GRADIENT      0.012661  THRESHOLD              0.000030 CONVERGED NO

 GRADIENT NORM     0.045650  GRADIENT THRESHOLD     0.500000

 EIGENVALUES OF THE ESTIMATED HESSIAN
  0.3476E-01  0.7498E-01  0.8087E-01  0.1757      0.1954      0.2264    
  0.2366      0.2850      0.2930      0.3789      0.6837      0.8198    
  0.8319    

 INITIAL TRUST RADIUS    0.5000000000E+00

 PREDICTED ENERGY CHANGE    -0.647E-02

 INITIAL DISPLACEMENTS
  0.010863 -0.004317  0.023953  0.154073  0.172404 -0.078920  0.141916  0.185571
 -0.108338 -0.274142 -0.103966  0.083874  0.075049
 TTTTTTTTTTTTTTTTTTTTTTTTTTTTTT OPTI        TELAPSE      256.87 TCPU      251.50

 OPTOPTOPTOPTOPTOPTOPTOPTOPTOPTOPTOPTOPTOPTOPTOPTOPTOPTOPTOPTOPTOPTOPTOPTOPTOPT

 - INFORMATION ON SCF MOVED TO SCFOUT.LOG
 GEOMETRY OPTIMIZATION INFORMATION STORED IN OPTINFO.DAT

 OPTOPTOPTOPTOPTOPTOPTOPTOPTOPTOPTOPTOPTOPTOPTOPTOPTOPTOPTOPTOPTOPTOPTOPTOPTOPT
 *******************************************************************************
 COORDINATE AND CELL OPTIMIZATION - POINT    2
 *******************************************************************************
 LATTICE PARAMETERS (ANGSTROMS AND DEGREES) - BOHR = 0.5291772083 ANGSTROM
 PRIMITIVE CELL - CENTRING CODE 1/0 VOLUME=   167.602306 - DENSITY  6.453 g/cm^3
         A              B              C           ALPHA      BETA       GAMMA 
     5.62822042     5.65358286     5.64433747    90.000000 111.061620  90.000000
 *******************************************************************************
 ATOMS IN THE ASYMMETRIC UNIT    3 - ATOMS IN THE UNIT CELL:   12
     ATOM                 X/A                 Y/B                 Z/C    
 *******************************************************************************
      1 T  26 FE    2.844671282077E-01 -4.937709694308E-01 -2.045271411572E-01
      2 F  26 FE   -2.844671282077E-01  6.229030569232E-03 -2.954728588428E-01
      3 F  26 FE   -2.844671282077E-01  4.937709694308E-01  2.045271411572E-01
      4 F  26 FE    2.844671282077E-01 -6.229030569232E-03  2.954728588428E-01
      5 T  33 AS    1.530920756645E-01  3.774752302572E-01  3.654727033314E-01
      6 F  33 AS   -1.530920756645E-01 -1.225247697428E-01  1.345272966686E-01
      7 F  33 AS   -1.530920756645E-01 -3.774752302572E-01 -3.654727033314E-01
      8 F  33 AS    1.530920756645E-01  1.225247697428E-01 -1.345272966686E-01
      9 T  16 S    -3.403644969543E-01  3.775381185648E-01 -1.842500640607E-01
     10 F  16 S     3.403644969543E-01 -1.224618814352E-01 -3.157499359393E-01
     11 F  16 S     3.403644969543E-01 -3.775381185648E-01  1.842500640607E-01
     12 F  16 S    -3.403644969543E-01  1.224618814352E-01  3.157499359393E-01

 T = ATOM BELONGING TO THE ASYMMETRIC UNIT

 TOTAL ENERGY(DFT)(AU)( 21) -1.5588853595487E+04     DE (AU)    1.023E-02

 UPDATED TRUST RADIUS     0.119E+00
 ENERGY CHANGE > 0: STEP REJECTED. RETRYING WITH A NEW STEP

 EIGENVALUES OF THE ESTIMATED HESSIAN
  0.3476E-01  0.7498E-01  0.8087E-01  0.1757      0.1954      0.2264    
  0.2366      0.2850      0.2930      0.3789      0.6837      0.8198    
  0.8319    
 NEWTON STEP ( 0.4747042767E+00) EXCEEDS TRUST RADIUS ( 0.1186760692E+00)
 LEVEL SHIFT    -0.9551958858E-01

 PREDICTED ENERGY CHANGE    -0.355E-02

 MAX GRADIENT      0.023926  THRESHOLD              0.000045 CONVERGED NO
 RMS GRADIENT      0.012661  THRESHOLD              0.000030 CONVERGED NO
 MAX DISPLAC.      0.077560  THRESHOLD              0.000180 CONVERGED NO
 RMS DISPLAC.      0.032915  THRESHOLD              0.000120 CONVERGED NO
 TTTTTTTTTTTTTTTTTTTTTTTTTTTTTT OPTI        TELAPSE      438.89 TCPU      431.25
 *******************************************************************************
 COORDINATE AND CELL OPTIMIZATION - POINT    3
 *******************************************************************************
 LATTICE PARAMETERS (ANGSTROMS AND DEGREES) - BOHR = 0.5291772083 ANGSTROM
 PRIMITIVE CELL - CENTRING CODE 1/0 VOLUME=   173.214027 - DENSITY  6.244 g/cm^3
         A              B              C           ALPHA      BETA       GAMMA 
     5.72642973     5.67769098     5.73609017    90.000000 111.755050  90.000000
 *******************************************************************************
 ATOMS IN THE ASYMMETRIC UNIT    3 - ATOMS IN THE UNIT CELL:   12
     ATOM                 X/A                 Y/B                 Z/C    
 *******************************************************************************
      1 T  26 FE    2.842595873111E-01 -4.936713092318E-01 -2.051276437310E-01
      2 F  26 FE   -2.842595873111E-01  6.328690768249E-03 -2.948723562690E-01
      3 F  26 FE   -2.842595873111E-01  4.936713092318E-01  2.051276437310E-01
      4 F  26 FE    2.842595873111E-01 -6.328690768249E-03  2.948723562690E-01
      5 T  33 AS    1.484722323168E-01  3.715169206209E-01  3.692026516785E-01
      6 F  33 AS   -1.484722323168E-01 -1.284830793791E-01  1.307973483215E-01
      7 F  33 AS   -1.484722323168E-01 -3.715169206209E-01 -3.692026516785E-01
      8 F  33 AS    1.484722323168E-01  1.284830793791E-01 -1.307973483215E-01
      9 T  16 S    -3.445883506451E-01  3.715486363258E-01 -1.796278665495E-01
     10 F  16 S     3.445883506451E-01 -1.284513636742E-01 -3.203721334505E-01
     11 F  16 S     3.445883506451E-01 -3.715486363258E-01  1.796278665495E-01
     12 F  16 S    -3.445883506451E-01  1.284513636742E-01  3.203721334505E-01

 T = ATOM BELONGING TO THE ASYMMETRIC UNIT

 TOTAL ENERGY(DFT)(AU)( 20) -1.5588867144304E+04     DE (AU)   -3.315E-03

 UPDATED TRUST RADIUS     0.237E+00

 SYMMETRY ALLOWED FORCES  (COORDINATE, FORCE)

    1  1.0839789E-02    2 -2.5902489E-03    3  9.7402012E-03    4 -5.9107976E-03
    5  4.5422654E-03    6  6.3195447E-03    7 -8.8236559E-03    8  9.7844504E-03
    9  4.7452844E-03   10 -9.8566344E-03   11 -5.3728275E-03   12  1.1288571E-02
   13 -6.1071820E-03

 GRADIENT NORM     0.028310  GRADIENT THRESHOLD     0.500000

 EIGENVALUES OF THE ESTIMATED HESSIAN
  0.5878E-01  0.7825E-01  0.8802E-01  0.1732      0.1877      0.2195    
  0.2350      0.2824      0.2929      0.3022      0.6666      0.7887    
  0.8324    
 NEWTON STEP ( 0.2829615655E+00) EXCEEDS TRUST RADIUS ( 0.2373521384E+00)
 LEVEL SHIFT     0.1482252309E-01

 PREDICTED ENERGY CHANGE    -0.331E-02

 MAX GRADIENT      0.011289  THRESHOLD              0.000045 CONVERGED NO
 RMS GRADIENT      0.007852  THRESHOLD              0.000030 CONVERGED NO
 MAX DISPLAC.      0.131264  THRESHOLD              0.000180 CONVERGED NO
 RMS DISPLAC.      0.065830  THRESHOLD              0.000120 CONVERGED NO
 TTTTTTTTTTTTTTTTTTTTTTTTTTTTTT OPTI        TELAPSE      660.38 TCPU      650.17
 *******************************************************************************
 COORDINATE AND CELL OPTIMIZATION - POINT    4
 *******************************************************************************
 LATTICE PARAMETERS (ANGSTROMS AND DEGREES) - BOHR = 0.5291772083 ANGSTROM
 PRIMITIVE CELL - CENTRING CODE 1/0 VOLUME=   171.488031 - DENSITY  6.307 g/cm^3
         A              B              C           ALPHA      BETA       GAMMA 
     5.70147525     5.69739105     5.72503895    90.000000 112.760531  90.000000
 *******************************************************************************
 ATOMS IN THE ASYMMETRIC UNIT    3 - ATOMS IN THE UNIT CELL:   12
     ATOM                 X/A                 Y/B                 Z/C    
 *******************************************************************************
      1 T  26 FE    2.865429758165E-01 -4.938056058833E-01 -2.035748282954E-01
      2 F  26 FE   -2.865429758165E-01  6.194394116704E-03 -2.964251717046E-01
      3 F  26 FE   -2.865429758165E-01  4.938056058833E-01  2.035748282954E-01
      4 F  26 FE    2.865429758165E-01 -6.194394116704E-03  2.964251717046E-01
      5 T  33 AS    1.469233328633E-01  3.714835539009E-01  3.733721873040E-01
      6 F  33 AS   -1.469233328633E-01 -1.285164460991E-01  1.266278126960E-01
      7 F  33 AS   -1.469233328633E-01 -3.714835539009E-01 -3.733721873040E-01
      8 F  33 AS    1.469233328633E-01  1.285164460991E-01 -1.266278126960E-01
      9 T  16 S    -3.480326265916E-01  3.734821788220E-01 -1.771950626175E-01
     10 F  16 S     3.480326265916E-01 -1.265178211780E-01 -3.228049373825E-01
     11 F  16 S     3.480326265916E-01 -3.734821788220E-01  1.771950626175E-01
     12 F  16 S    -3.480326265916E-01  1.265178211780E-01  3.228049373825E-01

 T = ATOM BELONGING TO THE ASYMMETRIC UNIT

 TOTAL ENERGY(DFT)(AU)( 20) -1.5588867186506E+04     DE (AU)   -4.220E-05

 UPDATED TRUST RADIUS     0.593E-01

 SYMMETRY ALLOWED FORCES  (COORDINATE, FORCE)

    1 -8.5688923E-04    2  1.7968200E-03    3  1.2287885E-03    4  8.4389261E-03
    5  1.1072200E-03    6 -8.5814459E-03    7  1.9794248E-02    8 -1.4945890E-03
    9 -1.2258934E-02   10  2.5476066E-03   11  7.0051575E-04   12 -5.5418203E-03
   13  7.3992770E-03

 GRADIENT NORM     0.028077  GRADIENT THRESHOLD     0.500000

 EIGENVALUES OF THE ESTIMATED HESSIAN
  0.6824E-01  0.8062E-01  0.1512      0.1721      0.1870      0.2185    
  0.2377      0.2849      0.2931      0.3547      0.6623      0.7888    
  0.8323    
 NEWTON STEP ( 0.1437467831E+00) EXCEEDS TRUST RADIUS ( 0.5933803459E-01)
 LEVEL SHIFT    -0.1022897354E-01

 PREDICTED ENERGY CHANGE    -0.118E-02

 MAX GRADIENT      0.019794  THRESHOLD              0.000045 CONVERGED NO
 RMS GRADIENT      0.007787  THRESHOLD              0.000030 CONVERGED NO
 MAX DISPLAC.      0.032772  THRESHOLD              0.000180 CONVERGED NO
 RMS DISPLAC.      0.016457  THRESHOLD              0.000120 CONVERGED NO
 TTTTTTTTTTTTTTTTTTTTTTTTTTTTTT OPTI        TELAPSE      881.12 TCPU      868.26
 *******************************************************************************
 COORDINATE AND CELL OPTIMIZATION - POINT    5
 *******************************************************************************
 LATTICE PARAMETERS (ANGSTROMS AND DEGREES) - BOHR = 0.5291772083 ANGSTROM
 PRIMITIVE CELL - CENTRING CODE 1/0 VOLUME=   171.472522 - DENSITY  6.307 g/cm^3
[...]
   25-  25      376.0022 (Bg )    0.00    6.47    0.00    0.00    8.78    0.00
   26-  26      376.6078 (Ag )   12.69    0.00    9.88  374.02    0.00    0.50
   29-  29      389.1053 (Bg )    0.00   54.61    0.00    0.00   24.74    0.00
   30-  30      397.6786 (Ag )   69.84    0.00   45.44  348.08    0.00  198.98
   32-  32      419.3482 (Bg )    0.00    1.93    0.00    0.00    0.07    0.00
   33-  33      460.8954 (Ag )  246.31    0.00   13.59  218.56    0.00 1000.00
   34-  34      473.8474 (Bg )    0.00  216.54    0.00    0.00  216.89    0.00

 <RAMAN><RAMAN><RAMAN><RAMAN><RAMAN><RAMAN><RAMAN><RAMAN><RAMAN><RAMAN><RAMAN>
 <RAMAN><RAMAN><RAMAN><RAMAN><RAMAN><RAMAN><RAMAN><RAMAN><RAMAN><RAMAN><RAMAN>


 NORMAL MODES NORMALIZED TO CLASSICAL AMPLITUDES (IN BOHR)

 FREQ(CM**-1)      0.00      0.00      0.00    159.32    163.38    182.68

 AT.   1 FE X     0.0000   -0.0384    0.0076   -0.0063   -0.0165    0.0134
            Y    -0.0392   -0.0000    0.0000    0.0123    0.0120    0.0007
            Z     0.0000   -0.0076   -0.0384    0.0133    0.0018    0.0233
 AT.   2 FE X    -0.0000   -0.0384    0.0076    0.0063   -0.0165   -0.0134
            Y    -0.0392    0.0000   -0.0000    0.0123   -0.0120    0.0007
            Z    -0.0000   -0.0076   -0.0384   -0.0133    0.0018   -0.0233
 AT.   3 FE X     0.0000   -0.0384    0.0076    0.0063    0.0165    0.0134
            Y    -0.0392   -0.0000    0.0000   -0.0123   -0.0120    0.0007
            Z     0.0000   -0.0076   -0.0384   -0.0133   -0.0018    0.0233
 AT.   4 FE X    -0.0000   -0.0384    0.0076   -0.0063    0.0165   -0.0134
            Y    -0.0392    0.0000   -0.0000   -0.0123    0.0120    0.0007
            Z    -0.0000   -0.0076   -0.0384    0.0133   -0.0018   -0.0233
 AT.   5 AS X     0.0000   -0.0384    0.0076   -0.0148    0.0314    0.0156
            Y    -0.0392    0.0000   -0.0000   -0.0260    0.0260    0.0002
            Z     0.0000   -0.0076   -0.0384    0.0316   -0.0042    0.0340
 AT.   6 AS X    -0.0000   -0.0384    0.0076    0.0148    0.0314   -0.0156
            Y    -0.0392   -0.0000    0.0000   -0.0260   -0.0260    0.0002
            Z    -0.0000   -0.0076   -0.0384   -0.0316   -0.0042   -0.0340
 AT.   7 AS X     0.0000   -0.0384    0.0076    0.0148   -0.0314    0.0156
            Y    -0.0392    0.0000   -0.0000    0.0260   -0.0260    0.0002
            Z     0.0000   -0.0076   -0.0384   -0.0316    0.0042    0.0340
 AT.   8 AS X    -0.0000   -0.0384    0.0076   -0.0148   -0.0314   -0.0156
            Y    -0.0392   -0.0000    0.0000    0.0260    0.0260    0.0002
            Z    -0.0000   -0.0076   -0.0384    0.0316    0.0042   -0.0340
 AT.   9 S  X     0.0000   -0.0384    0.0076    0.0061   -0.0268    0.0122
            Y    -0.0392    0.0000    0.0000    0.0195   -0.0192   -0.0018
            Z    -0.0000   -0.0076   -0.0384   -0.0203   -0.0036    0.0215
 AT.  10 S  X    -0.0000   -0.0384    0.0076   -0.0061   -0.0268   -0.0122
            Y    -0.0392   -0.0000   -0.0000    0.0195    0.0192   -0.0018
            Z     0.0000   -0.0076   -0.0384    0.0203   -0.0036   -0.0215
 AT.  11 S  X     0.0000   -0.0384    0.0076   -0.0061    0.0268    0.0122
            Y    -0.0392    0.0000    0.0000   -0.0195    0.0192   -0.0018
            Z    -0.0000   -0.0076   -0.0384    0.0203    0.0036    0.0215
 AT.  12 S  X    -0.0000   -0.0384    0.0076    0.0061    0.0268   -0.0122
            Y    -0.0392   -0.0000   -0.0000   -0.0195   -0.0192   -0.0018
            Z     0.0000   -0.0076   -0.0384   -0.0203    0.0036   -0.0215

 FREQ(CM**-1)    190.97    192.43    195.60    225.14    229.29    233.44

 AT.   1 FE X     0.0144   -0.0206    0.0081    0.0021   -0.0004   -0.0045
            Y    -0.0053   -0.0141    0.0152    0.0124    0.0070   -0.0009
            Z    -0.0061    0.0018   -0.0167    0.0001   -0.0010    0.0024
 AT.   2 FE X    -0.0144   -0.0206   -0.0081    0.0021    0.0004   -0.0045
            Y    -0.0053    0.0141    0.0152   -0.0124    0.0070    0.0009
            Z     0.0061    0.0018    0.0167    0.0001    0.0010    0.0024
 AT.   3 FE X     0.0144    0.0206   -0.0081   -0.0021    0.0004   -0.0045
            Y    -0.0053    0.0141   -0.0152   -0.0124   -0.0070   -0.0009
            Z    -0.0061   -0.0018    0.0167   -0.0001    0.0010    0.0024
 AT.   4 FE X    -0.0144    0.0206    0.0081   -0.0021   -0.0004   -0.0045
            Y    -0.0053   -0.0141   -0.0152    0.0124   -0.0070    0.0009
            Z     0.0061   -0.0018   -0.0167   -0.0001   -0.0010    0.0024
 AT.   5 AS X     0.0377    0.0221    0.0047    0.0001    0.0372    0.0008
            Y     0.0025   -0.0292   -0.0313    0.0069   -0.0021    0.0404
            Z    -0.0178    0.0108   -0.0223    0.0396    0.0167   -0.0022
 AT.   6 AS X    -0.0377    0.0221   -0.0047    0.0001   -0.0372    0.0008
            Y     0.0025    0.0292   -0.0313   -0.0069   -0.0021   -0.0404
            Z     0.0178    0.0108    0.0223    0.0396   -0.0167   -0.0022
 AT.   7 AS X     0.0377   -0.0221   -0.0047   -0.0001   -0.0372    0.0008
            Y     0.0025    0.0292    0.0313   -0.0069    0.0021    0.0404
            Z    -0.0178   -0.0108    0.0223   -0.0396   -0.0167   -0.0022
 AT.   8 AS X    -0.0377   -0.0221    0.0047   -0.0001    0.0372    0.0008
            Y     0.0025   -0.0292    0.0313    0.0069    0.0021   -0.0404
            Z     0.0178   -0.0108   -0.0223   -0.0396    0.0167   -0.0022
 AT.   9 S  X     0.0154   -0.0096    0.0011    0.0100    0.0029    0.0058
            Y     0.0034    0.0163    0.0135   -0.0021   -0.0007    0.0103
            Z    -0.0106   -0.0050    0.0102    0.0042    0.0103    0.0010
 AT.  10 S  X    -0.0154   -0.0096   -0.0011    0.0100   -0.0029    0.0058
            Y     0.0034   -0.0163    0.0135    0.0021   -0.0007   -0.0103
            Z     0.0106   -0.0050   -0.0102    0.0042   -0.0103    0.0010
 AT.  11 S  X     0.0154    0.0096   -0.0011   -0.0100   -0.0029    0.0058
            Y     0.0034   -0.0163   -0.0135    0.0021    0.0007    0.0103
            Z    -0.0106    0.0050   -0.0102   -0.0042   -0.0103    0.0010
 AT.  12 S  X    -0.0154    0.0096    0.0011   -0.0100    0.0029    0.0058
            Y     0.0034    0.0163   -0.0135   -0.0021    0.0007   -0.0103
            Z     0.0106    0.0050    0.0102   -0.0042    0.0103    0.0010

 FREQ(CM**-1)    273.18    275.71    277.85    284.81    297.90    301.42

 AT.   1 FE X    -0.0153   -0.0150    0.0294   -0.0211    0.0115    0.0113
            Y     0.0004    0.0057   -0.0046    0.0021    0.0237    0.0316
            Z     0.0190    0.0181   -0.0106    0.0103   -0.0127   -0.0012
 AT.   2 FE X    -0.0153    0.0150   -0.0294   -0.0211   -0.0115   -0.0113
            Y    -0.0004    0.0057   -0.0046   -0.0021    0.0237    0.0316
            Z     0.0190   -0.0181    0.0106    0.0103    0.0127    0.0012
 AT.   3 FE X    -0.0153    0.0150    0.0294    0.0211    0.0115   -0.0113
            Y     0.0004   -0.0057   -0.0046   -0.0021    0.0237   -0.0316
            Z     0.0190   -0.0181   -0.0106   -0.0103   -0.0127    0.0012
 AT.   4 FE X    -0.0153   -0.0150   -0.0294    0.0211   -0.0115    0.0113
            Y    -0.0004   -0.0057   -0.0046    0.0021    0.0237   -0.0316
            Z     0.0190    0.0181    0.0106   -0.0103    0.0127   -0.0012
 AT.   5 AS X     0.0161    0.0106   -0.0152   -0.0201   -0.0003   -0.0028
            Y    -0.0042   -0.0011    0.0091    0.0028   -0.0243    0.0174
            Z    -0.0224   -0.0141   -0.0000    0.0037    0.0034   -0.0003
 AT.   6 AS X     0.0161   -0.0106    0.0152   -0.0201    0.0003    0.0028
            Y     0.0042   -0.0011    0.0091   -0.0028   -0.0243    0.0174
            Z    -0.0224    0.0141    0.0000    0.0037   -0.0034    0.0003
 AT.   7 AS X     0.0161   -0.0106   -0.0152    0.0201   -0.0003    0.0028
            Y    -0.0042    0.0011    0.0091   -0.0028   -0.0243   -0.0174
            Z    -0.0224    0.0141   -0.0000   -0.0037    0.0034    0.0003
 AT.   8 AS X     0.0161    0.0106    0.0152    0.0201    0.0003   -0.0028
            Y     0.0042    0.0011    0.0091    0.0028   -0.0243   -0.0174
            Z    -0.0224   -0.0141    0.0000   -0.0037   -0.0034   -0.0003
 AT.   9 S  X    -0.0110   -0.0204    0.0268   -0.0228    0.0027    0.0005
            Y     0.0094    0.0025   -0.0133    0.0027    0.0154    0.0206
            Z     0.0192   -0.0351   -0.0020   -0.0284   -0.0013   -0.0023
 AT.  10 S  X    -0.0110    0.0204   -0.0268   -0.0228   -0.0027   -0.0005
            Y    -0.0094    0.0025   -0.0133   -0.0027    0.0154    0.0206
            Z     0.0192    0.0351    0.0020   -0.0284    0.0013    0.0023
 AT.  11 S  X    -0.0110    0.0204    0.0268    0.0228    0.0027   -0.0005
            Y     0.0094   -0.0025   -0.0133   -0.0027    0.0154   -0.0206
            Z     0.0192    0.0351   -0.0020    0.0284   -0.0013    0.0023
 AT.  12 S  X    -0.0110   -0.0204   -0.0268    0.0228   -0.0027    0.0005
            Y    -0.0094   -0.0025   -0.0133    0.0027    0.0154   -0.0206
            Z     0.0192   -0.0351    0.0020    0.0284    0.0013   -0.0023

 FREQ(CM**-1)    302.37    305.48    311.00    316.51    361.34    361.66

 AT.   1 FE X     0.0126   -0.0118   -0.0163    0.0023    0.0130    0.0315
            Y    -0.0297   -0.0040   -0.0292    0.0331    0.0018   -0.0002
            Z     0.0105   -0.0311   -0.0098   -0.0111    0.0072    0.0118
 AT.   2 FE X     0.0126    0.0118   -0.0163    0.0023   -0.0130   -0.0315
            Y     0.0297   -0.0040    0.0292   -0.0331    0.0018   -0.0002
            Z     0.0105    0.0311   -0.0098   -0.0111   -0.0072   -0.0118
 AT.   3 FE X     0.0126   -0.0118   -0.0163   -0.0023    0.0130   -0.0315
            Y    -0.0297   -0.0040   -0.0292   -0.0331    0.0018    0.0002
            Z     0.0105   -0.0311   -0.0098    0.0111    0.0072   -0.0118
 AT.   4 FE X     0.0126    0.0118   -0.0163   -0.0023   -0.0130    0.0315
            Y     0.0297   -0.0040    0.0292    0.0331    0.0018    0.0002
            Z     0.0105    0.0311   -0.0098    0.0111   -0.0072    0.0118
 AT.   5 AS X    -0.0152    0.0067    0.0149    0.0002    0.0005    0.0014
            Y    -0.0009    0.0059   -0.0007   -0.0162    0.0016   -0.0043
            Z    -0.0113    0.0185    0.0109   -0.0043    0.0061    0.0006
 AT.   6 AS X    -0.0152   -0.0067    0.0149    0.0002   -0.0005   -0.0014
            Y     0.0009    0.0059    0.0007    0.0162    0.0016   -0.0043
            Z    -0.0113   -0.0185    0.0109   -0.0043   -0.0061   -0.0006
 AT.   7 AS X    -0.0152    0.0067    0.0149   -0.0002    0.0005   -0.0014
            Y    -0.0009    0.0059   -0.0007    0.0162    0.0016    0.0043
            Z    -0.0113    0.0185    0.0109    0.0043    0.0061   -0.0006
 AT.   8 AS X    -0.0152   -0.0067    0.0149   -0.0002   -0.0005    0.0014
            Y     0.0009    0.0059    0.0007   -0.0162    0.0016    0.0043
            Z    -0.0113   -0.0185    0.0109    0.0043   -0.0061    0.0006
 AT.   9 S  X     0.0136    0.0002   -0.0064   -0.0045   -0.0264   -0.0031
            Y    -0.0026   -0.0068    0.0004   -0.0094   -0.0070   -0.0207
            Z     0.0081   -0.0090   -0.0083   -0.0084   -0.0371   -0.0118
 AT.  10 S  X     0.0136   -0.0002   -0.0064   -0.0045    0.0264    0.0031
            Y     0.0026   -0.0068   -0.0004    0.0094   -0.0070   -0.0207
            Z     0.0081    0.0090   -0.0083   -0.0084    0.0371    0.0118
 AT.  11 S  X     0.0136    0.0002   -0.0064    0.0045   -0.0264    0.0031
            Y    -0.0026   -0.0068    0.0004    0.0094   -0.0070    0.0207
            Z     0.0081   -0.0090   -0.0083    0.0084   -0.0371    0.0118
 AT.  12 S  X     0.0136   -0.0002   -0.0064    0.0045    0.0264   -0.0031
            Y     0.0026   -0.0068   -0.0004   -0.0094   -0.0070    0.0207
            Z     0.0081    0.0090   -0.0083    0.0084    0.0371   -0.0118

 FREQ(CM**-1)    376.00    376.61    377.12    388.34    389.11    397.68

 AT.   1 FE X    -0.0098    0.0062    0.0094    0.0024    0.0231    0.0091
            Y    -0.0044   -0.0129   -0.0019   -0.0003   -0.0076   -0.0129
            Z    -0.0332    0.0121    0.0193   -0.0002   -0.0076   -0.0211
 AT.   2 FE X    -0.0098   -0.0062    0.0094    0.0024    0.0231   -0.0091
            Y     0.0044   -0.0129    0.0019    0.0003    0.0076   -0.0129
            Z    -0.0332   -0.0121    0.0193   -0.0002   -0.0076    0.0211
 AT.   3 FE X     0.0098   -0.0062    0.0094    0.0024   -0.0231   -0.0091
            Y     0.0044    0.0129   -0.0019   -0.0003    0.0076    0.0129
            Z     0.0332   -0.0121    0.0193   -0.0002    0.0076    0.0211
 AT.   4 FE X     0.0098    0.0062    0.0094    0.0024   -0.0231    0.0091
            Y    -0.0044    0.0129    0.0019    0.0003   -0.0076    0.0129
            Z     0.0332    0.0121    0.0193   -0.0002    0.0076   -0.0211
 AT.   5 AS X    -0.0048    0.0048    0.0019    0.0036    0.0053    0.0026
            Y     0.0052    0.0017    0.0013    0.0056    0.0012    0.0022
            Z     0.0013   -0.0064    0.0005   -0.0028    0.0038    0.0051
 AT.   6 AS X    -0.0048   -0.0048    0.0019    0.0036    0.0053   -0.0026
            Y    -0.0052    0.0017   -0.0013   -0.0056   -0.0012    0.0022
            Z     0.0013    0.0064    0.0005   -0.0028    0.0038   -0.0051
 AT.   7 AS X     0.0048   -0.0048    0.0019    0.0036   -0.0053   -0.0026
            Y    -0.0052   -0.0017    0.0013    0.0056   -0.0012   -0.0022
            Z    -0.0013    0.0064    0.0005   -0.0028   -0.0038   -0.0051
 AT.   8 AS X     0.0048    0.0048    0.0019    0.0036   -0.0053    0.0026
            Y     0.0052   -0.0017   -0.0013   -0.0056    0.0012   -0.0022
            Z    -0.0013   -0.0064    0.0005   -0.0028   -0.0038    0.0051
 AT.   9 S  X    -0.0078    0.0319   -0.0210   -0.0128   -0.0154   -0.0153
            Y     0.0112    0.0263    0.0020   -0.0456    0.0050    0.0181
            Z     0.0081   -0.0048   -0.0350    0.0069   -0.0303   -0.0225
 AT.  10 S  X    -0.0078   -0.0319   -0.0210   -0.0128   -0.0154    0.0153
            Y    -0.0112    0.0263   -0.0020    0.0456   -0.0050    0.0181
            Z     0.0081    0.0048   -0.0350    0.0069   -0.0303    0.0225
 AT.  11 S  X     0.0078   -0.0319   -0.0210   -0.0128    0.0154    0.0153
            Y    -0.0112   -0.0263    0.0020   -0.0456   -0.0050   -0.0181
            Z    -0.0081    0.0048   -0.0350    0.0069    0.0303    0.0225
 AT.  12 S  X     0.0078    0.0319   -0.0210   -0.0128    0.0154   -0.0153
            Y     0.0112   -0.0263   -0.0020    0.0456    0.0050   -0.0181
            Z    -0.0081   -0.0048   -0.0350    0.0069    0.0303   -0.0225

 FREQ(CM**-1)    406.20    419.35    460.90    473.85    498.21    498.34

 AT.   1 FE X     0.0031    0.0012   -0.0053   -0.0090   -0.0125   -0.0154
            Y     0.0155   -0.0117    0.0066   -0.0039    0.0118    0.0035
            Z    -0.0037   -0.0043   -0.0133   -0.0070    0.0081    0.0099
 AT.   2 FE X    -0.0031    0.0012    0.0053   -0.0090    0.0125   -0.0154
            Y     0.0155    0.0117    0.0066    0.0039    0.0118   -0.0035
            Z     0.0037   -0.0043    0.0133   -0.0070   -0.0081    0.0099
 AT.   3 FE X     0.0031   -0.0012    0.0053    0.0090   -0.0125   -0.0154
            Y     0.0155    0.0117   -0.0066    0.0039    0.0118    0.0035
            Z    -0.0037    0.0043    0.0133    0.0070    0.0081    0.0099
 AT.   4 FE X    -0.0031   -0.0012   -0.0053    0.0090    0.0125   -0.0154
            Y     0.0155   -0.0117   -0.0066   -0.0039    0.0118   -0.0035
            Z     0.0037    0.0043   -0.0133    0.0070   -0.0081    0.0099
 AT.   5 AS X     0.0043   -0.0043    0.0007    0.0030    0.0000   -0.0008
            Y     0.0029   -0.0068    0.0010    0.0019   -0.0018   -0.0019
            Z    -0.0045    0.0040   -0.0007   -0.0016    0.0002   -0.0004
 AT.   6 AS X    -0.0043   -0.0043   -0.0007    0.0030   -0.0000   -0.0008
            Y     0.0029    0.0068    0.0010   -0.0019   -0.0018    0.0019
            Z     0.0045    0.0040    0.0007   -0.0016   -0.0002   -0.0004
 AT.   7 AS X     0.0043    0.0043   -0.0007   -0.0030    0.0000   -0.0008
            Y     0.0029    0.0068   -0.0010   -0.0019   -0.0018   -0.0019
            Z    -0.0045   -0.0040    0.0007    0.0016    0.0002   -0.0004
 AT.   8 AS X    -0.0043    0.0043    0.0007   -0.0030   -0.0000   -0.0008
            Y     0.0029   -0.0068   -0.0010    0.0019   -0.0018    0.0019
            Z     0.0045   -0.0040   -0.0007    0.0016   -0.0002   -0.0004
 AT.   9 S  X    -0.0160   -0.0118    0.0271    0.0310    0.0250    0.0289
            Y    -0.0339   -0.0400   -0.0192   -0.0123   -0.0165   -0.0128
            Z     0.0184    0.0068   -0.0223   -0.0242   -0.0187   -0.0164
 AT.  10 S  X     0.0160   -0.0118   -0.0271    0.0310   -0.0250    0.0289
            Y    -0.0339    0.0400   -0.0192    0.0123   -0.0165    0.0128
            Z    -0.0184    0.0068    0.0223   -0.0242    0.0187   -0.0164
 AT.  11 S  X    -0.0160    0.0118   -0.0271   -0.0310    0.0250    0.0289
            Y    -0.0339    0.0400    0.0192    0.0123   -0.0165   -0.0128
            Z     0.0184   -0.0068    0.0223    0.0242   -0.0187   -0.0164
 AT.  12 S  X     0.0160    0.0118    0.0271   -0.0310   -0.0250    0.0289
            Y    -0.0339   -0.0400    0.0192   -0.0123   -0.0165    0.0128
            Z    -0.0184   -0.0068   -0.0223    0.0242    0.0187   -0.0164

 *******************************************************************************

 VIBRATIONAL TEMPERATURES (K) [MODE NUMBER;IRREP]

 TO MODES
   229.2 [   4;Ag ]   235.1 [   5;Bg ]   262.8 [   6;Au ]   274.8 [   7;Au ]
   276.9 [   8;Bg ]   281.4 [   9;Ag ]   323.9 [  10;Bg ]   329.9 [  11;Ag ]
   335.9 [  12;Bu ]   393.0 [  13;Bu ]   396.7 [  14;Ag ]   399.8 [  15;Au ]
   409.8 [  16;Bg ]   428.6 [  17;Au ]   433.7 [  18;Ag ]   435.0 [  19;Bu ]
   439.5 [  20;Au ]   447.5 [  21;Bu ]   455.4 [  22;Bg ]   519.9 [  23;Au ]
   520.3 [  24;Ag ]   541.0 [  25;Bg ]   541.9 [  26;Ag ]   542.6 [  27;Bu ]
   558.7 [  28;Bu ]   559.8 [  29;Bg ]   572.2 [  30;Ag ]   584.4 [  31;Au ]
   603.3 [  32;Bg ]   663.1 [  33;Ag ]   681.8 [  34;Bg ]   716.8 [  35;Au ]
   717.0 [  36;Bu ]

 *******************************************************************************

 HARMONIC VIBRATIONAL CONTRIBUTIONS TO THERMODYNAMIC FUNCTIONS AT GIVEN
 TEMPERATURE AND PRESSURE:

 (EL = ELECTRONIC ENERGY
  E0 = ZERO-POINT ENERGY
  ET = THERMAL CONTRIBUTION TO THE VIBRATIONAL ENERGY
  PV = PRESSURE * VOLUME
  TS = TEMPERATURE * ENTROPY)

                          AU/CELL             EV/CELL                 KJ/MOL
 EL            :  -15588.868749083409 -424194.684303587012   -40928569.13283705
 E0            :       0.023927969613       0.651113155112          62.82287536


 *******************************************************************************

 THERMODYNAMIC FUNCTIONS WITH VIBRATIONAL CONTRIBUTIONS

 AT (T =  298.15 K, P =   0.10132500E+00 MPA):

                          AU/CELL             EV/CELL                 KJ/MOL
 ET            :       0.013565385028       0.369132892952          35.61591337
 PV            :       0.000003990333       0.000108582483           0.01047662
 TS            :       0.022398592222       0.609496680578          58.80749559
 ET+PV-TS      :      -0.008829216862      -0.240255205143         -23.18110560
 EL+E0+ET+PV-TS:  -15588.853650330659 -424194.273445637082   -40928529.49106729

 OTHER THERMODYNAMIC FUNCTIONS:

                      mHARTREE/(CELL*K)     mEV/(CELL*K)              J/(MOL*K)
 ENTROPY       :       0.075125246427       2.044261883542         197.24130670
 HEAT CAPACITY :       0.085382344536       2.323371712770         224.17131399

 *******************************************************************************
 TTTTTTTTTTTTTTTTTTTTTTTTTTTTTT END         TELAPSE    25634.57 TCPU    23373.89
 EEEEEEEEEE TERMINATION  DATE 30 05 2023 TIME 01:11:58.0
