         256 PROCESSORS WORKING

         
 *******************************************************************************
 *                                                                             *
 *                               CRYSTAL23                                     *
 *                      public : 1.0.1 - October 2022                          *
 *                       HTTP://WWW.CRYSTAL.UNITO.IT                           *
 *                                                                             *
 *                              MAIN AUTHORS                                   *
 *                                                                             *
 *  R. DOVESI(1,11), V.R. SAUNDERS(2), C. ROETTI(1,11), R. ORLANDO(1,11),      *
 *  C.M. ZICOVICH-WILSON(1,3), F. PASCALE(4), B. CIVALLERI(1,11),              *
 *  K. DOLL(5), N.M. HARRISON(6), I.J. BUSH(7), Ph. D'ARCO(8),                 *
 *  M. LLUNELL(9), M. CAUSA'(10), Y. NOEL(8), L. MASCHIO(1,11), A. ERBA(1,11)  *
 *  M. RE'RAT(14), S. CASASSA(1,11), B.G. SEARLE(2), J.K. DESMARAIS(1)         *
 *                                                                             *
 *        CONTRIBUTIONS TO THE CODE HAVE ALSO BEEN GIVEN BY                    *
 *                                                                             *
 *  M. FERRABONE(1,11), M. DE LA PIERRE(1,11), M. FERRERO(1,11),               *
 *  J. BAIMA(1,11), E. ALBANESE(1,11), M.F. PEINTINGER(12), R. BAST(13),       *
 *  B. KIRTMAN(15), V. LACIVITA(1,11), R. DEMICHELIS(1,16)                     *
 *  G. BRANDEBURG(17), S. SALUSTRO(1,11), G. SANSONE(1,11)                     *
 *  M.T. RUGGIERO(18), L.E. DAGA(1), L. DONA'(1), A. COSSARD(1)                *
 *                                                                             *
 * (1) THEORETICAL CHEMISTRY GROUP - UNIVERSITA' DI TORINO - TORINO (ITALY)    *
 * (2) SCIENTIFIC COMPUTING DEPARTMENT - STFC DARESBURY (UK)                   *
 * (3) UNIVERSIDAD AUTONOMA DEL ESTADO DE MORELOS - CUERNAVACA (MEXICO)        *
 * (4) UNIVERSITE' DE LORRAINE - NANCY (FRANCE)                                *
 * (5) UNIVERSITAET STUTTGART- STUTTGART (GERMANY)                             *
 * (6) IMPERIAL COLLEGE - LONDON (UK)                                          *
 * (7) SCIENTIFIC COMPUTING DEPARTMENT - STFC RAL (UK)                         *
 * (8) UPMC - SORBONNE UNIVERSITES - PARIS (FRANCE)                            *
 * (9) UNIVERSIDAD DE BARCELONA - BARCELONA (SPAIN)                            *
 *(10) UNIVERSITA' DI NAPOLI "FEDERICO II" - NAPOLI (ITALY)                    *
 *(11) NIS - NANOSTRUCTURED INTERFACES AND SURFACES - TORINO (ITALY)           *
 *(12) MPI FUER CHEMISCHE ENERGIEKONVERSION - MUELHEIM AN DER RUHR (GERMANY)   *
 *(13) UNIVERSITY OF TROMSO - TROMSO (NORWAY)                                  *
 *(14) UNIVERSITE' DE PAU ET DES PAYS DE L'ADOUR - PAU (FRANCE)                *
 *(15) UNIVERSITY OF CALIFORNIA SANTA BARBARA - SANTA BARBARA (USA)            *
 *(16) CURTIN UNIVERSITY - PERTH (AUSTRALIA)                                   *
 *(17) UNIVERSITY COLLEGE LONDON - LONDON (UK)                                 *
 *(18) UNIVERSITY OF VERMONT - BURLINGTON (USA)                                *
 *                                                                             *
 *******************************************************************************
 EEEEEEEEEE STARTING  DATE 05 09 2023 TIME 17:15:27.9
 ICSD_CollCode430428.cif                                                         

 CRYSTAL CALCULATION
 (INPUT ACCORDING TO THE INTERNATIONAL TABLES FOR X-RAY CRYSTALLOGRAPHY)
 CRYSTAL FAMILY                       :  MONOCLINIC  
 CRYSTAL CLASS  (GROTH - 1921)        :  MONOCLINIC PRISMATIC                 

 SPACE GROUP (CENTROSYMMETRIC)        :  P 1 21/N 1      

 LATTICE PARAMETERS  (ANGSTROMS AND DEGREES) - CONVENTIONAL CELL
        A           B           C        ALPHA        BETA       GAMMA
     3.45870    16.35460     6.95480    90.00000    95.44400    90.00000


 NUMBER OF IRREDUCIBLE ATOMS IN THE CONVENTIONAL CELL:    7

 INPUT COORDINATES

 ATOM AT. N.              COORDINATES
   1  30     4.626600000000E-01  8.407000000000E-02  3.990900000000E-01
   2   7     9.509000000000E-01  1.374800000000E-01  3.353000000000E-01
   3   7     9.448000000000E-01  1.998200000000E-01  2.364000000000E-01
   4   7     9.462000000000E-01  2.564600000000E-01  1.466000000000E-01
   5   7     5.086000000000E-01  3.700000000000E-02  6.706000000000E-01
   6   7     4.228000000000E-01  6.694000000000E-02  8.201000000000E-01
   7   7     3.455000000000E-01  9.496000000000E-02  9.612000000000E-01

 *******************************************************************************

 << INFORMATION >>: FROM NOW ON, ALL COORDINATES REFER TO THE PRIMITIVE CELL

 *******************************************************************************

 LATTICE PARAMETERS  (ANGSTROMS AND DEGREES) - PRIMITIVE CELL
       A          B          C        ALPHA      BETA     GAMMA        VOLUME
    3.45870   16.35460    6.95480    90.00000  95.44400  90.00000    391.628335

 COORDINATES OF THE EQUIVALENT ATOMS (FRACTIONAL UNITS)

 N. ATOM EQUIV AT. N.          X                  Y                  Z

   1   1   1   30 ZN    4.62660000000E-01  8.40700000000E-02  3.99090000000E-01
   2   1   2   30 ZN    3.73400000000E-02 -4.15930000000E-01  1.00910000000E-01
   3   1   3   30 ZN   -4.62660000000E-01 -8.40700000000E-02 -3.99090000000E-01
   4   1   4   30 ZN   -3.73400000000E-02  4.15930000000E-01 -1.00910000000E-01

   5   2   1    7 N    -4.91000000000E-02  1.37480000000E-01  3.35300000000E-01
   6   2   2    7 N    -4.50900000000E-01 -3.62520000000E-01  1.64700000000E-01
   7   2   3    7 N     4.91000000000E-02 -1.37480000000E-01 -3.35300000000E-01
   8   2   4    7 N     4.50900000000E-01  3.62520000000E-01 -1.64700000000E-01

   9   3   1    7 N    -5.52000000000E-02  1.99820000000E-01  2.36400000000E-01
  10   3   2    7 N    -4.44800000000E-01 -3.00180000000E-01  2.63600000000E-01
  11   3   3    7 N     5.52000000000E-02 -1.99820000000E-01 -2.36400000000E-01
  12   3   4    7 N     4.44800000000E-01  3.00180000000E-01 -2.63600000000E-01

  13   4   1    7 N    -5.38000000000E-02  2.56460000000E-01  1.46600000000E-01
  14   4   2    7 N    -4.46200000000E-01 -2.43540000000E-01  3.53400000000E-01
  15   4   3    7 N     5.38000000000E-02 -2.56460000000E-01 -1.46600000000E-01
  16   4   4    7 N     4.46200000000E-01  2.43540000000E-01 -3.53400000000E-01

  17   5   1    7 N    -4.91400000000E-01  3.70000000000E-02 -3.29400000000E-01
  18   5   2    7 N    -8.60000000000E-03 -4.63000000000E-01 -1.70600000000E-01
  19   5   3    7 N     4.91400000000E-01 -3.70000000000E-02  3.29400000000E-01
  20   5   4    7 N     8.60000000000E-03  4.63000000000E-01  1.70600000000E-01

  21   6   1    7 N     4.22800000000E-01  6.69400000000E-02 -1.79900000000E-01
  22   6   2    7 N     7.72000000000E-02 -4.33060000000E-01 -3.20100000000E-01
  23   6   3    7 N    -4.22800000000E-01 -6.69400000000E-02  1.79900000000E-01
  24   6   4    7 N    -7.72000000000E-02  4.33060000000E-01  3.20100000000E-01

  25   7   1    7 N     3.45500000000E-01  9.49600000000E-02 -3.88000000000E-02
  26   7   2    7 N     1.54500000000E-01 -4.05040000000E-01 -4.61200000000E-01
  27   7   3    7 N    -3.45500000000E-01 -9.49600000000E-02  3.88000000000E-02
  28   7   4    7 N    -1.54500000000E-01  4.05040000000E-01  4.61200000000E-01

 NUMBER OF SYMMETRY OPERATORS         :    4
 *******************************************************************************
 * GEOMETRY EDITING - INPUT COORDINATES ARE GIVEN IN ANGSTROM         
 *******************************************************************************

 GEOMETRY NOW FULLY CONSISTENT WITH THE GROUP

 FRQFRQFRQFRQFRQFRQFRQFRQFRQFRQFRQFRQFRQFRQFRQFRQFRQFRQFRQFRQFRQFRQFRQFRQFRQFRQ

                       FREQUENCY CALCULATION

 OPTIMIZATION PERFORMED BEFORE FREQUENCIES CALCULATION
 *******************************************************************************
 INFORMATION **** NEW DEFAULT **** FINALRUN 4 FOR GEOMETRY OPTIMIZATIONS
 INFORMATION **** NEW DEFAULT **** OPTGEOM OPTIMIZES ATOMIC COORDINATES ONLY
 INFORMATION **** NEW DEFAULT **** TOL. ON ATOMIC DISP TO REDEFINE REF. GEOMETRY: 0.8 Angs
 INFORMATION **** NEW DEFAULT **** N POINTS TO REDEFINE REF. GEOMETRY: N OF OPT DEGS OF FREEDOM
 INFORMATION **** NEW DEFAULT **** TOL. ON ENERGY TO REDEFINE REF. GEOMETRY: 10**-3*(5*N. ATOMS)
 INFORMATION **** FULLOPTG **** FULL OPTIMIZATION (ATOMS AND CELL PARAMETERS)

 IMPORTANT INFORMATION:
 THE COORDINATE SYSTEM ADOPTED IN THE OPTIMIZATION IS NOT IN
 GENERAL HOMOGENEOUS UNITS. FOR THIS REASON THE GRADIENT AND 
 HESSIAN MATRIX IN TERMS OF THIS SYSTEM ARE GIVEN WITHOUT
 UNITS. FOR MORE DETAILS SEE THE MANUAL.

 *******************************************************************************
 COMBINED CELL/ATOM OPTIMIZATION CONTROL

 INITIAL TRUST RADIUS         0.50000 MAXIMUM TRUST RADIUS               0.50000
 MAXIMUM GRADIENT COMPONENT   0.00005 MAXIMUM DISPLACEMENT COMPONENT     0.00018
 R.M.S. OF GRADIENT COMPONENT 0.00003 R.M.S. OF DISPLACEMENT COMPONENTS  0.00012
 THRESHOLD ON ENERGY CHANGE 0.100E-06 EXTRAPOLATING POLYNOMIAL ORDER           2
 MAXIMUM ALLOWED NUMBER OF STEPS   -1 SORTING OF ENERGY POINTS:               NO
 ANALYTICAL  GRADIENT                 HESSIAN UPDATING                      BFGS
 STEP SIZE NUMERICAL GRADIENT 0.00100
 INITIAL HESSIAN MATRIX: SCHLEGEL MODEL 2
 *******************************************************************************

 INFORMATION **** INPFREQ **** IR INTENSITIES EVALUATED THROUGH CPHF APPROACH
 INFORMATION **** INPFREQ **** NEW DEFAULT - IMPOSING ECKART CONDITIONS TO THE HESSIAN

 GCALCO - MAX INDICES DIRECT LATTICE VECTOR    32     6    16
 NO.OF VECTORS CREATED 6999 STARS 2000 RMAX   163.68460 BOHR

 GEOMETRY FOR WAVE FUNCTION - DIMENSIONALITY OF THE SYSTEM    3
 (NON PERIODIC DIRECTION: LATTICE PARAMETER FORMALLY SET TO 500)
 *******************************************************************************
 LATTICE PARAMETERS (ANGSTROMS AND DEGREES) - BOHR = 0.5291772083 ANGSTROM
 PRIMITIVE CELL - CENTRING CODE 1/0 VOLUME=   391.628335 - DENSITY  2.509 g/cm^3
         A              B              C           ALPHA      BETA       GAMMA 
     3.45870000    16.35460000     6.95480000    90.000000  95.444000  90.000000
 *******************************************************************************
 ATOMS IN THE ASYMMETRIC UNIT    7 - ATOMS IN THE UNIT CELL:   28
     ATOM                 X/A                 Y/B                 Z/C    
 *******************************************************************************
      1 T  30 ZN    4.626600000000E-01  8.407000000000E-02  3.990900000000E-01
      2 F  30 ZN    3.734000000000E-02 -4.159300000000E-01  1.009100000000E-01
      3 F  30 ZN   -4.626600000000E-01 -8.407000000000E-02 -3.990900000000E-01
      4 F  30 ZN   -3.734000000000E-02  4.159300000000E-01 -1.009100000000E-01
      5 T   7 N    -4.910000000000E-02  1.374800000000E-01  3.353000000000E-01
      6 F   7 N    -4.509000000000E-01 -3.625200000000E-01  1.647000000000E-01
      7 F   7 N     4.910000000000E-02 -1.374800000000E-01 -3.353000000000E-01
      8 F   7 N     4.509000000000E-01  3.625200000000E-01 -1.647000000000E-01
      9 T   7 N    -5.520000000000E-02  1.998200000000E-01  2.364000000000E-01
     10 F   7 N    -4.448000000000E-01 -3.001800000000E-01  2.636000000000E-01
     11 F   7 N     5.520000000000E-02 -1.998200000000E-01 -2.364000000000E-01
     12 F   7 N     4.448000000000E-01  3.001800000000E-01 -2.636000000000E-01
     13 T   7 N    -5.380000000000E-02  2.564600000000E-01  1.466000000000E-01
     14 F   7 N    -4.462000000000E-01 -2.435400000000E-01  3.534000000000E-01
     15 F   7 N     5.380000000000E-02 -2.564600000000E-01 -1.466000000000E-01
     16 F   7 N     4.462000000000E-01  2.435400000000E-01 -3.534000000000E-01
     17 T   7 N    -4.914000000000E-01  3.700000000000E-02 -3.294000000000E-01
     18 F   7 N    -8.600000000000E-03 -4.630000000000E-01 -1.706000000000E-01
     19 F   7 N     4.914000000000E-01 -3.700000000000E-02  3.294000000000E-01
     20 F   7 N     8.600000000000E-03  4.630000000000E-01  1.706000000000E-01
     21 T   7 N     4.228000000000E-01  6.694000000000E-02 -1.799000000000E-01
     22 F   7 N     7.720000000000E-02 -4.330600000000E-01 -3.201000000000E-01
     23 F   7 N    -4.228000000000E-01 -6.694000000000E-02  1.799000000000E-01
     24 F   7 N    -7.720000000000E-02  4.330600000000E-01  3.201000000000E-01
     25 T   7 N     3.455000000000E-01  9.496000000000E-02 -3.880000000000E-02
     26 F   7 N     1.545000000000E-01 -4.050400000000E-01 -4.612000000000E-01
     27 F   7 N    -3.455000000000E-01 -9.496000000000E-02  3.880000000000E-02
     28 F   7 N    -1.545000000000E-01  4.050400000000E-01  4.612000000000E-01

 T = ATOM BELONGING TO THE ASYMMETRIC UNIT

 ****    4 SYMMOPS - TRANSLATORS IN FRACTIONAL UNITS
 **** MATRICES AND TRANSLATORS IN THE CRYSTALLOGRAPHIC REFERENCE FRAME
   V INV                    ROTATION MATRICES                   TRANSLATORS
   1   1  1.00  0.00  0.00  0.00  1.00  0.00  0.00  0.00  1.00  0.00  0.00  0.00
   2   2 -1.00  0.00  0.00  0.00  1.00 -0.00  0.00  0.00 -1.00  0.50  0.50  0.50
   3   3 -1.00  0.00  0.00 -0.00 -1.00  0.00  0.00  0.00 -1.00  0.00  0.00  0.00
   4   4  1.00  0.00 -0.00 -0.00 -1.00  0.00  0.00  0.00  1.00  0.50  0.50  0.50

 DIRECT LATTICE VECTORS CARTESIAN COMPONENTS (ANGSTROM)
          X                    Y                    Z
   0.345870000000E+01   0.211784294211E-15   0.000000000000E+00
   0.000000000000E+00   0.163546000000E+02   0.000000000000E+00
  -0.659821503823E+00   0.425858677936E-15   0.692342968644E+01


 CARTESIAN COORDINATES - PRIMITIVE CELL
 *******************************************************************************
 *      ATOM          X(ANGSTROM)         Y(ANGSTROM)         Z(ANGSTROM)
 *******************************************************************************
    1    30 ZN    1.336873978039E+00  1.374931222000E+00  2.763071553562E+00
    2    30 ZN    6.256527004923E-02 -6.802368778000E+00  6.986432896588E-01
    3    30 ZN   -1.336873978039E+00 -1.374931222000E+00 -2.763071553562E+00
    4    30 ZN   -6.256527004923E-02  6.802368778000E+00 -6.986432896588E-01
    5     7 N    -3.910603202318E-01  2.248430408000E+00  2.321425973864E+00
    6     7 N    -1.668200431680E+00 -5.928869592000E+00  1.140288869357E+00
    7     7 N     3.910603202318E-01 -2.248430408000E+00 -2.321425973864E+00
    8     7 N     1.668200431680E+00  5.928869592000E+00 -1.140288869357E+00
    9     7 N    -3.469020435037E-01  3.267976172000E+00  1.636698777875E+00
   10     7 N    -1.712358708408E+00 -4.909323828000E+00  1.825016065346E+00
   11     7 N     3.469020435037E-01 -3.267976172000E+00 -1.636698777875E+00
   12     7 N     1.712358708408E+00  4.909323828000E+00 -1.825016065346E+00
   13     7 N    -2.828078924604E-01  4.194300716000E+00  1.014974792032E+00
   14     7 N     1.682247140549E+00 -3.982999284000E+00  2.446740051188E+00
   15     7 N     2.828078924604E-01 -4.194300716000E+00 -1.014974792032E+00
   16     7 N    -1.682247140549E+00  3.982999284000E+00 -2.446740051188E+00
   17     7 N    -1.482259976641E+00  6.051202000000E-01 -2.280577738714E+00
   18     7 N     8.282072855219E-02 -7.572179800000E+00 -1.181137104507E+00
   19     7 N     1.482259976641E+00 -6.051202000000E-01  2.280577738714E+00
   20     7 N    -8.282072855219E-02  7.572179800000E+00  1.181137104507E+00
   21     7 N     1.581040248538E+00  1.094776924000E+00 -1.245525000591E+00
   22     7 N     4.782205033737E-01 -7.082523076000E+00 -2.216189842630E+00
   23     7 N    -1.581040248538E+00 -1.094776924000E+00  1.245525000591E+00
   24     7 N    -4.782205033737E-01  7.082523076000E+00  2.216189842630E+00
   25     7 N     1.220581924348E+00  1.553032816000E+00 -2.686290718339E-01
   26     7 N     8.386788275631E-01 -6.624267184000E+00 -3.193085771387E+00
   27     7 N    -1.220581924348E+00 -1.553032816000E+00  2.686290718339E-01
   28     7 N    -8.386788275631E-01  6.624267184000E+00  3.193085771387E+00

 *******************************************************************************
 LOCAL ATOMIC FUNCTIONS BASIS SET
 *******************************************************************************
   ATOM   X(AU)   Y(AU)   Z(AU)  N. TYPE  EXPONENT  S COEF   P COEF   D/F/G COEF
 *******************************************************************************
   1 ZN   2.526   2.598   5.221
                                  1 S  
                                         4.059E+05 2.244E-04 0.000E+00 0.000E+00
                                         6.085E+04 1.740E-03 0.000E+00 0.000E+00
                                         1.385E+04 9.051E-03 0.000E+00 0.000E+00
                                         3.920E+03 3.682E-02 0.000E+00 0.000E+00
                                         1.276E+03 1.200E-01 0.000E+00 0.000E+00
                                         4.587E+02 2.858E-01 0.000E+00 0.000E+00
                                         1.783E+02 4.109E-01 0.000E+00 0.000E+00
                                         7.061E+01 2.182E-01 0.000E+00 0.000E+00
                                  2 S  
                                         4.439E+02-2.493E-02 0.000E+00 0.000E+00
                                         1.376E+02-1.182E-01 0.000E+00 0.000E+00
                                         2.227E+01 5.537E-01 0.000E+00 0.000E+00
                                         9.522E+00 5.263E-01 0.000E+00 0.000E+00
                                  3 S  
                                         1.487E+01-2.293E-01 0.000E+00 0.000E+00
                                         2.465E+00 7.114E-01 0.000E+00 0.000E+00
                                  4 S  
                                         1.011E+00 1.000E+00 0.000E+00 0.000E+00
                                  5 S  
                                         3.230E-01 1.000E+00 0.000E+00 0.000E+00
                                  6 S  
                                         1.517E-01 1.000E+00 0.000E+00 0.000E+00
                           7-     9 P  
                                         2.205E+03 0.000E+00 2.336E-03 0.000E+00
                                         5.224E+02 0.000E+00 1.903E-02 0.000E+00
                                         1.677E+02 0.000E+00 8.996E-02 0.000E+00
                                         6.267E+01 0.000E+00 2.611E-01 0.000E+00
                                         2.511E+01 0.000E+00 4.235E-01 0.000E+00
                                         1.023E+01 0.000E+00 2.462E-01 0.000E+00
                          10-    12 P  
                                         4.071E+01 0.000E+00-3.003E-02 0.000E+00
                                         5.625E+00 0.000E+00 5.558E-01 0.000E+00
                                         2.228E+00 0.000E+00 9.558E-01 0.000E+00
                          13-    15 P  
                                         1.160E+00 0.000E+00 1.000E+00 0.000E+00
                          16-    18 P  
                                         2.625E-01 0.000E+00 1.000E+00 0.000E+00
                          19-    23 D  
                                         8.855E+01 0.000E+00 0.000E+00 1.273E-02
                                         2.572E+01 0.000E+00 0.000E+00 7.939E-02
                                         9.128E+00 0.000E+00 0.000E+00 2.449E-01
                                         3.431E+00 0.000E+00 0.000E+00 4.039E-01
                          24-    28 D  
                                         1.186E+00 0.000E+00 0.000E+00 1.000E+00
                          29-    33 D  
                                         3.309E-01 0.000E+00 0.000E+00 1.000E+00
                          34-    40 F  
                                         2.614E+00 0.000E+00 0.000E+00 1.000E+00
   2 ZN   0.118 -12.855   1.320
   3 ZN  -2.526  -2.598  -5.221
   4 ZN  -0.118  12.855  -1.320
   5 N   -0.739   4.249   4.387
                                161 S  
                                         1.973E+04 2.189E-04 0.000E+00 0.000E+00
                                         2.958E+03 1.696E-03 0.000E+00 0.000E+00
                                         6.732E+02 8.795E-03 0.000E+00 0.000E+00
                                         1.907E+02 3.536E-02 0.000E+00 0.000E+00
                                         6.230E+01 1.110E-01 0.000E+00 0.000E+00
                                         2.265E+01 2.498E-01 0.000E+00 0.000E+00
                                162 S  
                                         8.979E+00 4.062E-01 0.000E+00 0.000E+00
                                         3.686E+00 2.434E-01 0.000E+00 0.000E+00
                                163 S  
                                         7.865E-01 1.000E+00 0.000E+00 0.000E+00
                                164 S  
                                         2.678E-01 1.000E+00 0.000E+00 0.000E+00
                         165-   167 P  
                                         4.920E+01 0.000E+00 5.555E-03 0.000E+00
                                         1.135E+01 0.000E+00 3.805E-02 0.000E+00
                                         3.427E+00 0.000E+00 1.495E-01 0.000E+00
                                         1.179E+00 0.000E+00 3.495E-01 0.000E+00
                         168-   170 P  
                                         3.780E-01 0.000E+00 1.000E+00 0.000E+00
                         171-   173 P  
                                         1.474E-01 0.000E+00 1.000E+00 0.000E+00
                         174-   178 D  
                                         3.612E-01 0.000E+00 0.000E+00 1.000E+00
   6 N   -3.152 -11.204   2.155
   7 N    0.739  -4.249  -4.387
   8 N    3.152  11.204  -2.155
   9 N   -0.656   6.176   3.093
  10 N   -3.236  -9.277   3.449
  11 N    0.656  -6.176  -3.093
  12 N    3.236   9.277  -3.449
  13 N   -0.534   7.926   1.918
  14 N    3.179  -7.527   4.624
  15 N    0.534  -7.926  -1.918
  16 N   -3.179   7.527  -4.624
  17 N   -2.801   1.144  -4.310
  18 N    0.157 -14.309  -2.232
  19 N    2.801  -1.144   4.310
  20 N   -0.157  14.309   2.232
  21 N    2.988   2.069  -2.354
  22 N    0.904 -13.384  -4.188
  23 N   -2.988  -2.069   2.354
  24 N   -0.904  13.384   4.188
  25 N    2.307   2.935  -0.508
  26 N    1.585 -12.518  -6.034
  27 N   -2.307  -2.935   0.508
  28 N   -1.585  12.518   6.034
 INFORMATION **** SET_MPP **** PCRYSTAL CALCULATION
 INFORMATION **** READM2 **** NEW DEFAULT: FOCK/KS MATRIX MIXING SET TO 30 %
 INFORMATION **** READM2 **** NEW DEFAULT: FULL DIRECT SCF MODE
 INFORMATION **** READM2 **** NEW DEFAULT: COULOMB BIPOLAR BUFFER SET TO 32 Mb
 INFORMATION **** READM2 **** NEW DEFAULT: EXCHANGE BIPOLAR BUFFER SET TO 32 Mb

 *******************************************************************************
 NEW DEFAULT: DFT INTEGRATION GRID INCREASED TO XLGRID
 NEW DEFAULT: DIIS ACCELERATOR ACTIVE
 USE KEYWORD NODIIS TO TURN IT OFF
 *******************************************************************************

 INFORMATION **** RDDFTP **** MAX N. OF POINTS ALLOWED IN A BATCH FOR NUMERICAL INTEGRATION         200
 INFORMATION **** TOLINTEG **** COULOMB AND EXCHANGE SERIES TOLERANCES MODIFIED
 INFORMATION **** TOLDEE **** SCF TOL ON TOTAL ENERGY SET TO          11
 INFORMATION **** EXCHSIZE **** EXCHANGE BIPOLAR BUFFER SIZE SET TO    12012489
 INFORMATION **** MAXCYCLE **** MAX NUMBER OF SCF CYCLES SET TO         150
 *******************************************************************************
 N. OF ATOMS PER CELL        28  COULOMB OVERLAP TOL         (T1) 10**   -7
 NUMBER OF SHELLS           248  COULOMB PENETRATION TOL     (T2) 10**   -7
 NUMBER OF AO               592  EXCHANGE OVERLAP TOL        (T3) 10**   -7
 N. OF ELECTRONS PER CELL   288  EXCHANGE PSEUDO OVP (F(G))  (T4) 10**   -9
 CORE ELECTRONS PER CELL    120  EXCHANGE PSEUDO OVP (P(G))  (T5) 10**  -30
 N. OF SYMMETRY OPERATORS     4  POLE ORDER IN MONO ZONE                  4
 *******************************************************************************
 TYPE OF CALCULATION :  RESTRICTED CLOSED SHELL
 KOHN-SHAM HAMILTONIAN

 (EXCHANGE)[CORRELATION] FUNCTIONAL:(PERDEW-BURKE-ERNZERHOF)[PERDEW-BURKE-ERNZERHOF]


 HYBRID EXCHANGE - PERCENTAGE OF FOCK EXCHANGE    25.0000

 CAPPA:IS1  8;IS2  8;IS3  8; K PTS MONK NET 170; SYMMOPS:K SPACE   4;G SPACE   4

 *******************************************************************************
 MAX NUMBER OF SCF CYCLES     150  CONVERGENCE ON DELTAP        10**-21
 WEIGHT OF F(I) IN F(I+1)      30% CONVERGENCE ON ENERGY        10**-11
 SHRINK. FACT.(MONKH.)    8  8  8  NUMBER OF K POINTS IN THE IBZ    170
 SHRINKING FACTOR(GILAT NET)    8  NUMBER OF K POINTS(GILAT NET)    170
 *******************************************************************************
 *** K POINTS COORDINATES (OBLIQUE COORDINATES IN UNITS OF IS =  8)
   1-R(  0  0  0)   2-C(  1  0  0)   3-C(  2  0  0)   4-C(  3  0  0)
   5-R(  4  0  0)   6-C(  0  1  0)   7-C(  1  1  0)   8-C(  2  1  0)
   9-C(  3  1  0)  10-C(  4  1  0)  11-C(  0  2  0)  12-C(  1  2  0)
  13-C(  2  2  0)  14-C(  3  2  0)  15-C(  4  2  0)  16-C(  0  3  0)
  17-C(  1  3  0)  18-C(  2  3  0)  19-C(  3  3  0)  20-C(  4  3  0)
  21-R(  0  4  0)  22-C(  1  4  0)  23-C(  2  4  0)  24-C(  3  4  0)
  25-R(  4  4  0)  26-C(  0  0  1)  27-C(  1  0  1)  28-C(  2  0  1)
  29-C(  3  0  1)  30-C(  4  0  1)  31-C(  5  0  1)  32-C(  6  0  1)
  33-C(  7  0  1)  34-C(  0  1  1)  35-C(  1  1  1)  36-C(  2  1  1)
  37-C(  3  1  1)  38-C(  4  1  1)  39-C(  5  1  1)  40-C(  6  1  1)
  41-C(  7  1  1)  42-C(  0  2  1)  43-C(  1  2  1)  44-C(  2  2  1)
  45-C(  3  2  1)  46-C(  4  2  1)  47-C(  5  2  1)  48-C(  6  2  1)
  49-C(  7  2  1)  50-C(  0  3  1)  51-C(  1  3  1)  52-C(  2  3  1)
  53-C(  3  3  1)  54-C(  4  3  1)  55-C(  5  3  1)  56-C(  6  3  1)
  57-C(  7  3  1)  58-C(  0  4  1)  59-C(  1  4  1)  60-C(  2  4  1)
  61-C(  3  4  1)  62-C(  4  4  1)  63-C(  5  4  1)  64-C(  6  4  1)
  65-C(  7  4  1)  66-C(  0  0  2)  67-C(  1  0  2)  68-C(  2  0  2)
  69-C(  3  0  2)  70-C(  4  0  2)  71-C(  5  0  2)  72-C(  6  0  2)
  73-C(  7  0  2)  74-C(  0  1  2)  75-C(  1  1  2)  76-C(  2  1  2)
  77-C(  3  1  2)  78-C(  4  1  2)  79-C(  5  1  2)  80-C(  6  1  2)
  81-C(  7  1  2)  82-C(  0  2  2)  83-C(  1  2  2)  84-C(  2  2  2)
  85-C(  3  2  2)  86-C(  4  2  2)  87-C(  5  2  2)  88-C(  6  2  2)
  89-C(  7  2  2)  90-C(  0  3  2)  91-C(  1  3  2)  92-C(  2  3  2)
  93-C(  3  3  2)  94-C(  4  3  2)  95-C(  5  3  2)  96-C(  6  3  2)
  97-C(  7  3  2)  98-C(  0  4  2)  99-C(  1  4  2) 100-C(  2  4  2)
 101-C(  3  4  2) 102-C(  4  4  2) 103-C(  5  4  2) 104-C(  6  4  2)
 105-C(  7  4  2) 106-C(  0  0  3) 107-C(  1  0  3) 108-C(  2  0  3)
 109-C(  3  0  3) 110-C(  4  0  3) 111-C(  5  0  3) 112-C(  6  0  3)
 113-C(  7  0  3) 114-C(  0  1  3) 115-C(  1  1  3) 116-C(  2  1  3)
 117-C(  3  1  3) 118-C(  4  1  3) 119-C(  5  1  3) 120-C(  6  1  3)
 121-C(  7  1  3) 122-C(  0  2  3) 123-C(  1  2  3) 124-C(  2  2  3)
 125-C(  3  2  3) 126-C(  4  2  3) 127-C(  5  2  3) 128-C(  6  2  3)
 129-C(  7  2  3) 130-C(  0  3  3) 131-C(  1  3  3) 132-C(  2  3  3)
 133-C(  3  3  3) 134-C(  4  3  3) 135-C(  5  3  3) 136-C(  6  3  3)
 137-C(  7  3  3) 138-C(  0  4  3) 139-C(  1  4  3) 140-C(  2  4  3)
 141-C(  3  4  3) 142-C(  4  4  3) 143-C(  5  4  3) 144-C(  6  4  3)
 145-C(  7  4  3) 146-R(  0  0  4) 147-C(  1  0  4) 148-C(  2  0  4)
 149-C(  3  0  4) 150-R(  4  0  4) 151-C(  0  1  4) 152-C(  1  1  4)
 153-C(  2  1  4) 154-C(  3  1  4) 155-C(  4  1  4) 156-C(  0  2  4)
 157-C(  1  2  4) 158-C(  2  2  4) 159-C(  3  2  4) 160-C(  4  2  4)
 161-C(  0  3  4) 162-C(  1  3  4) 163-C(  2  3  4) 164-C(  3  3  4)
 165-C(  4  3  4) 166-R(  0  4  4) 167-C(  1  4  4) 168-C(  2  4  4)
 169-C(  3  4  4) 170-R(  4  4  4)

 DIRECT LATTICE VECTORS COMPON. (A.U.)     RECIP. LATTICE VECTORS COMPON. (A.U.) 
        X            Y            Z              X            Y            Z
    6.5359958    0.0000000    0.0000000      0.9613203   -0.0000000    0.0916164
    0.0000000   30.9057150    0.0000000     -0.0000000    0.2033017   -0.0000000
   -1.2468819    0.0000000   13.0833860      0.0000000    0.0000000    0.4802415

 DISK SPACE FOR EIGENVECTORS (FTN 10)   116354048 REALS

 SYMMETRY ADAPTION OF THE BLOCH FUNCTIONS ENABLED
 TTTTTTTTTTTTTTTTTTTTTTTTTTTTTT gordsh1     TELAPSE        4.05 TCPU        1.77

 MATRIX SIZE: P(G) 3704472, F(G)  300608, P(G) IRR  474565, F(G) IRR   76758
 MAX G-VECTOR INDEX FOR 1- AND 2-ELECTRON INTEGRALS 223

 TTTTTTTTTTTTTTTTTTTTTTTTTTTTTT INPUT       TELAPSE        4.06 TCPU        1.78

 NEIGHBORS OF THE NON-EQUIVALENT ATOMS

 N = NUMBER OF NEIGHBORS AT DISTANCE R
    ATOM  N     R/ANG      R/AU   NEIGHBORS (ATOM LABELS AND CELL INDICES)
   1 ZN   1     1.9859     3.7528    5 N    0 0 0
   1 ZN   1     1.9884     3.7575    5 N    1 0 0
   1 ZN   1     2.0314     3.8388   17 N    1 0 1
   1 ZN   1     2.0432     3.8610   19 N    0 0 0
   1 ZN   1     2.7726     5.2395    9 N    0 0 0
   1 ZN   1     2.8289     5.3459    9 N    1 0 0

   5 N    1     1.2289     2.3223    9 N    0 0 0
   5 N    1     1.9859     3.7528    1 ZN   0 0 0
   5 N    1     1.9884     3.7575    1 ZN  -1 0 0
   5 N    1     2.3463     4.4338   13 N    0 0 0
   5 N    1     3.1288     5.9126   25 N    0 0 0
   5 N    1     3.1507     5.9540   16 N    1 0 1

   9 N    1     1.1175     2.1117   13 N    0 0 0
   9 N    1     1.2289     2.3223    5 N    0 0 0
   9 N    1     2.7726     5.2395    1 ZN   0 0 0
   9 N    1     2.8289     5.3459    1 ZN  -1 0 0
   9 N    1     3.0047     5.6781   25 N    0 0 0
   9 N    1     3.1856     6.0199   25 N   -1 0 0

  13 N    1     1.1175     2.1117    9 N    0 0 0
  13 N    1     2.3463     4.4338    5 N    0 0 0
  13 N    1     3.1284     5.9119    4 ZN   0 0 0
  13 N    1     3.1342     5.9227   24 N    0 0 0
  13 N    1     3.1507     5.9540    8 N   -1 0 0
  13 N    1     3.2739     6.1869   12 N   -1 0 0

  17 N    1     1.2114     2.2892   21 N   -1 0 0
  17 N    1     2.0314     3.8388    1 ZN  -1 0-1
  17 N    1     2.0432     3.8610    3 ZN   0 0 0
  17 N    1     2.3490     4.4390   25 N   -1 0 0
  17 N    1     2.6594     5.0256   19 N   -1 0-1
  17 N    1     3.2646     6.1693    7 N   -1 0 0

  21 N    1     1.1377     2.1499   25 N    0 0 0
  21 N    1     1.2114     2.2892   17 N    1 0 0
  21 N    1     2.9487     5.5722    3 ZN   1 0 0
  21 N    1     2.9576     5.5891    1 ZN   0 0-1
  21 N    1     3.1201     5.8962   27 N    1 0 0
  21 N    1     3.1342     5.9227   16 N    1 0 0

  25 N    1     1.1377     2.1499   21 N    0 0 0
  25 N    1     2.3490     4.4390   17 N    1 0 0
  25 N    1     3.0047     5.6781    9 N    0 0 0
  25 N    1     3.0392     5.7432    1 ZN   0 0 0
  25 N    1     3.1201     5.8962   23 N    1 0 0
  25 N    1     3.1288     5.9126    5 N    0 0 0


 SYMMETRY ALLOWED ELASTIC DISTORTION 1
  0.5773503  0.0000000  0.0000000
  0.0000000  0.5773503  0.0000000
  0.0000000  0.0000000  0.5773503

 SYMMETRY ALLOWED ELASTIC DISTORTION 2
  0.8164966  0.0000000  0.0000000
  0.0000000 -0.4082483  0.0000000
  0.0000000  0.0000000 -0.4082483

 SYMMETRY ALLOWED ELASTIC DISTORTION 3
  0.0000000  0.0000000  0.0000000
  0.0000000  0.7071068  0.0000000
  0.0000000  0.0000000 -0.7071068

 SYMMETRY ALLOWED ELASTIC DISTORTION 4
 -0.0000000  0.0000000  0.7071068
  0.0000000 -0.0000000  0.0000000
  0.7071068  0.0000000  0.0000000

 SYMMETRY ALLOWED INTERNAL DEGREE(S) OF FREEDOM:  21
 TTTTTTTTTTTTTTTTTTTTTTTTTTTTTT SYMM        TELAPSE        4.13 TCPU        1.85
 TTTTTTTTTTTTTTTTTTTTTTTTTTTTTT INT_SCREEN  TELAPSE        4.15 TCPU        1.86

 *******************************************************************************
 *                             OPTIMIZATION STARTS                             *
 *******************************************************************************
 RECLASIFICATION OF INDICES FOR INTEGRAL CALC ACCORDING TO DIFFERENT CRITERIA:
           FIXDELTE                  FIXDELTX              FIXDELTN
          0.10000000               0.80000000                 25
 *******************************************************************************

 *******************************************************************************
 COORDINATE AND CELL OPTIMIZATION - POINT    1

 DFT PARAMETERS

     ATOM       ELECTRONS   NET CHARGE   R(ANGSTROM)
   1  30  ZN     30.0000      0.0000     1.37000000
   5   7  N       7.0000      0.0000     0.74000000

 SIZE OF GRID=     447566
 TTTTTTTTTTTTTTTTTTTTTTTTTTTTTT MAKE_GRID2  TELAPSE        6.21 TCPU        3.91
 BECKE WEIGHT FUNCTION
 RADSAFE =     2.00
 TOLERANCES - DENSITY:10**- 6; POTENTIAL:10**- 9; GRID WGT:10**-14

 RADIAL INTEGRATION  - INTERVALS (POINTS,UPPER LIMIT):            1( 99,  4.0*R)

 ANGULAR INTEGRATION - INTERVALS (ACCURACY LEVEL [N. POINTS] UPPER LIMIT):
  1(  6[ 146]   0.2)  2( 11[ 302]   0.5)  3( 14[ 590]   0.9)  4( 18[1454]   3.5)
  5( 14[ 590]9999.0)
 TTTTTTTTTTTTTTTTTTTTTTTTTTTTTT INT_CALC    TELAPSE        6.23 TCPU        3.93

 *******************************************************************************
 ICSD_CollCode430428.cif                                                         
 CRYSTAL - SCF - TYPE OF CALCULATION :  RESTRICTED CLOSED SHELL
 *******************************************************************************

 CAPPA:IS1  8;IS2  8;IS3  8; K PTS MONK NET 170; SYMMOPS:K SPACE   4;G SPACE   4

 TTTTTTTTTTTTTTTTTTTTTTTTTTTTTT SDIK        TELAPSE        6.41 TCPU        4.11

 AAAAAAAAAAAAAAAAAAAAAAAAAAAAAAAAAAAAAAAAAAAAAAAAAAAAAAAAAAAAAAAAAAAAAAAAAAAAAAA
         ATOMIC WAVEFUNCTION(S)


 NUCLEAR CHARGE 30.0  SYMMETRY SPECIES            S    P    D
 N. ELECTRONS   30.0  NUMBER OF PRIMITIVE GTOS   17   11    6
                      NUMBER OF CONTRACTED GTOS   6    4    3
                      NUMBER OF CLOSED SHELLS     4    2    1
                      OPEN SHELL OCCUPATION       0    0    0

  ZNUC  SCFIT    TOTAL HF ENERGY   KINETIC ENERGY   VIRIAL THEOREM             ACCURACY
  30.0    18    -1.777712574E+03  1.776653869E+03 -2.000595898E+00  2.8E-06

 NUCLEAR CHARGE  7.0  SYMMETRY SPECIES            S    P
 N. ELECTRONS    7.0  NUMBER OF PRIMITIVE GTOS   10    6
                      NUMBER OF CONTRACTED GTOS   4    3
                      NUMBER OF CLOSED SHELLS     2    0
                      OPEN SHELL OCCUPATION       0    3

  ZNUC  SCFIT    TOTAL HF ENERGY   KINETIC ENERGY   VIRIAL THEOREM             ACCURACY
   7.0    11    -5.439370231E+01  5.446073132E+01 -1.998769223E+00  4.0E-06

 AAAAAAAAAAAAAAAAAAAAAAAAAAAAAAAAAAAAAAAAAAAAAAAAAAAAAAAAAAAAAAAAAAAAAAAAAAAAAAA

 TTTTTTTTTTTTTTTTTTTTTTTTTTTTTT MOQGAD      TELAPSE        6.42 TCPU        4.12
 TTTTTTTTTTTTTTTTTTTTTTTTTTTTTT SHELLXN     TELAPSE       11.01 TCPU        8.68
 TTTTTTTTTTTTTTTTTTTTTTTTTTTTTT MONMO3      TELAPSE       11.05 TCPU        8.72
 NUMERICALLY INTEGRATED DENSITY    287.9999706105
 TTTTTTTTTTTTTTTTTTTTTTTTTTTTTT NUMDFT      TELAPSE       11.49 TCPU        9.16
 CYC   0 ETOT(AU) -8.435990812581E+03 DETOT -8.44E+03 tst  0.00E+00 PX  1.00E+00
 TTTTTTTTTTTTTTTTTTTTTTTTTTTTTT DIIS        TELAPSE       11.52 TCPU        9.19
 TTTTTTTTTTTTTTTTTTTTTTTTTTTTTT FDIK        TELAPSE       12.08 TCPU        9.74
 INSULATING STATE
 TOP OF VALENCE BANDS -    BAND    144; K  106; EIG -2.4756589E-01 AU
 TOP OF VALENCE BANDS -    BAND    144; K    1; EIG -2.4858574E-01 AU
 BOTTOM OF VIRTUAL BANDS - BAND    145; K  150; EIG -7.6453232E-02 AU
 INDIRECT ENERGY BAND GAP:   4.6562 eV
 BOTTOM OF VIRTUAL BANDS - BAND    145; K    1; EIG -6.3120713E-02 AU
 TTTTTTTTTTTTTTTTTTTTTTTTTTTTTT PDIG        TELAPSE       12.28 TCPU        9.94
 TTTTTTTTTTTTTTTTTTTTTTTTTTTTTT MOQGAD      TELAPSE       12.28 TCPU        9.94
 TTTTTTTTTTTTTTTTTTTTTTTTTTTTTT SHELLXN     TELAPSE       17.03 TCPU       14.66
 TTTTTTTTTTTTTTTTTTTTTTTTTTTTTT MONMO3      TELAPSE       17.08 TCPU       14.70
 NUMERICALLY INTEGRATED DENSITY    287.9999482388
 TTTTTTTTTTTTTTTTTTTTTTTTTTTTTT NUMDFT      TELAPSE       17.62 TCPU       15.25
 CYC   1 ETOT(AU) -8.428607022543E+03 DETOT  7.38E+00 tst  0.00E+00 PX  1.00E+00
 TTTTTTTTTTTTTTTTTTTTTTTTTTTTTT DIIS        TELAPSE       17.65 TCPU       15.28
 DIIS TEST: 0.35566E+01 AT SCF   CYCLE   1 - MIX   30 %
 TTTTTTTTTTTTTTTTTTTTTTTTTTTTTT FDIK        TELAPSE       18.20 TCPU       15.82
 INSULATING STATE
 TOP OF VALENCE BANDS -    BAND    144; K  146; EIG -2.3790391E-01 AU
 TOP OF VALENCE BANDS -    BAND    144; K    1; EIG -2.3895255E-01 AU
 BOTTOM OF VIRTUAL BANDS - BAND    145; K   70; EIG -5.2025605E-02 AU
 INDIRECT ENERGY BAND GAP:   5.0580 eV
 BOTTOM OF VIRTUAL BANDS - BAND    145; K    1; EIG -3.9033465E-02 AU
 TTTTTTTTTTTTTTTTTTTTTTTTTTTTTT PDIG        TELAPSE       18.40 TCPU       16.02
 TTTTTTTTTTTTTTTTTTTTTTTTTTTTTT MOQGAD      TELAPSE       18.40 TCPU       16.02
 TTTTTTTTTTTTTTTTTTTTTTTTTTTTTT SHELLXN     TELAPSE       23.17 TCPU       20.75
 TTTTTTTTTTTTTTTTTTTTTTTTTTTTTT MONMO3      TELAPSE       23.21 TCPU       20.80
 NUMERICALLY INTEGRATED DENSITY    287.9999434854
 TTTTTTTTTTTTTTTTTTTTTTTTTTTTTT NUMDFT      TELAPSE       23.61 TCPU       21.19
 CYC   2 ETOT(AU) -8.428479830916E+03 DETOT  1.27E-01 tst  5.91E-03 PX  5.55E-01
 TTTTTTTTTTTTTTTTTTTTTTTTTTTTTT DIIS        TELAPSE       23.64 TCPU       21.22
 DIIS TEST: 0.49042E+01 AT SCF   CYCLE   2 - DIIS ACTIVE - HISTORY:     2 CYCLES
 TTTTTTTTTTTTTTTTTTTTTTTTTTTTTT FDIK        TELAPSE       24.19 TCPU       21.77
 INSULATING STATE
 TOP OF VALENCE BANDS -    BAND    144; K  106; EIG -2.3981771E-01 AU
 TOP OF VALENCE BANDS -    BAND    144; K    1; EIG -2.4057456E-01 AU
 BOTTOM OF VIRTUAL BANDS - BAND    145; K  150; EIG -5.2156058E-02 AU
 INDIRECT ENERGY BAND GAP:   5.1065 eV
 BOTTOM OF VIRTUAL BANDS - BAND    145; K    1; EIG -2.6242918E-02 AU
 TTTTTTTTTTTTTTTTTTTTTTTTTTTTTT PDIG        TELAPSE       24.39 TCPU       21.96
 TTTTTTTTTTTTTTTTTTTTTTTTTTTTTT MOQGAD      TELAPSE       24.39 TCPU       21.97
 TTTTTTTTTTTTTTTTTTTTTTTTTTTTTT SHELLXN     TELAPSE       29.16 TCPU       26.70
 TTTTTTTTTTTTTTTTTTTTTTTTTTTTTT MONMO3      TELAPSE       29.21 TCPU       26.75
 NUMERICALLY INTEGRATED DENSITY    287.9999417213
 TTTTTTTTTTTTTTTTTTTTTTTTTTTTTT NUMDFT      TELAPSE       29.71 TCPU       27.24
 CYC   3 ETOT(AU) -8.428916269699E+03 DETOT -4.36E-01 tst  4.08E-03 PX  1.06E-01
 TTTTTTTTTTTTTTTTTTTTTTTTTTTTTT DIIS        TELAPSE       29.73 TCPU       27.27
 DIIS TEST: 0.14244E+01 AT SCF   CYCLE   3 - DIIS ACTIVE - HISTORY:     3 CYCLES
 TTTTTTTTTTTTTTTTTTTTTTTTTTTTTT FDIK        TELAPSE       30.28 TCPU       27.81
 INSULATING STATE
 TOP OF VALENCE BANDS -    BAND    144; K  106; EIG -2.5455580E-01 AU
 TOP OF VALENCE BANDS -    BAND    144; K    1; EIG -2.5548277E-01 AU
 BOTTOM OF VIRTUAL BANDS - BAND    145; K   70; EIG -4.3255049E-02 AU
 INDIRECT ENERGY BAND GAP:   5.7498 eV
 BOTTOM OF VIRTUAL BANDS - BAND    145; K    1; EIG -2.7066798E-02 AU
 TTTTTTTTTTTTTTTTTTTTTTTTTTTTTT PDIG        TELAPSE       30.48 TCPU       28.01
 TTTTTTTTTTTTTTTTTTTTTTTTTTTTTT MOQGAD      TELAPSE       30.48 TCPU       28.01
 TTTTTTTTTTTTTTTTTTTTTTTTTTTTTT SHELLXN     TELAPSE       35.25 TCPU       32.75
 TTTTTTTTTTTTTTTTTTTTTTTTTTTTTT MONMO3      TELAPSE       35.30 TCPU       32.80
 NUMERICALLY INTEGRATED DENSITY    287.9999427549
 TTTTTTTTTTTTTTTTTTTTTTTTTTTTTT NUMDFT      TELAPSE       35.79 TCPU       33.28
 CYC   4 ETOT(AU) -8.429089707948E+03 DETOT -1.73E-01 tst  1.53E-03 PX  5.19E-02
 TTTTTTTTTTTTTTTTTTTTTTTTTTTTTT DIIS        TELAPSE       35.81 TCPU       33.31
 DIIS TEST: 0.43985E-01 AT SCF   CYCLE   4 - DIIS ACTIVE - HISTORY:     4 CYCLES
 TTTTTTTTTTTTTTTTTTTTTTTTTTTTTT FDIK        TELAPSE       36.36 TCPU       33.86
 INSULATING STATE
 TOP OF VALENCE BANDS -    BAND    144; K  106; EIG -2.5741145E-01 AU
 TOP OF VALENCE BANDS -    BAND    144; K    1; EIG -2.5836928E-01 AU
 BOTTOM OF VIRTUAL BANDS - BAND    145; K   70; EIG -4.5914717E-02 AU
 INDIRECT ENERGY BAND GAP:   5.7551 eV
 BOTTOM OF VIRTUAL BANDS - BAND    145; K    1; EIG -3.0222929E-02 AU
 TTTTTTTTTTTTTTTTTTTTTTTTTTTTTT PDIG        TELAPSE       36.56 TCPU       34.05
 TTTTTTTTTTTTTTTTTTTTTTTTTTTTTT MOQGAD      TELAPSE       36.56 TCPU       34.06
 TTTTTTTTTTTTTTTTTTTTTTTTTTTTTT SHELLXN     TELAPSE       41.33 TCPU       38.79
 TTTTTTTTTTTTTTTTTTTTTTTTTTTTTT MONMO3      TELAPSE       41.37 TCPU       38.84
 NUMERICALLY INTEGRATED DENSITY    287.9999433256
 TTTTTTTTTTTTTTTTTTTTTTTTTTTTTT NUMDFT      TELAPSE       41.92 TCPU       39.38
 CYC   5 ETOT(AU) -8.429094916707E+03 DETOT -5.21E-03 tst  7.29E-05 PX  1.62E-02
 TTTTTTTTTTTTTTTTTTTTTTTTTTTTTT DIIS        TELAPSE       41.94 TCPU       39.40
 DIIS TEST: 0.74389E-02 AT SCF   CYCLE   5 - DIIS ACTIVE - HISTORY:     5 CYCLES
 TTTTTTTTTTTTTTTTTTTTTTTTTTTTTT FDIK        TELAPSE       42.50 TCPU       39.95
 INSULATING STATE
 TOP OF VALENCE BANDS -    BAND    144; K  106; EIG -2.5592679E-01 AU
 TOP OF VALENCE BANDS -    BAND    144; K    1; EIG -2.5696407E-01 AU
 BOTTOM OF VIRTUAL BANDS - BAND    145; K   70; EIG -4.5015817E-02 AU
 INDIRECT ENERGY BAND GAP:   5.7392 eV
 BOTTOM OF VIRTUAL BANDS - BAND    145; K    1; EIG -2.8179802E-02 AU
 TTTTTTTTTTTTTTTTTTTTTTTTTTTTTT PDIG        TELAPSE       42.69 TCPU       40.15
 TTTTTTTTTTTTTTTTTTTTTTTTTTTTTT MOQGAD      TELAPSE       42.70 TCPU       40.15
 TTTTTTTTTTTTTTTTTTTTTTTTTTTTTT SHELLXN     TELAPSE       47.46 TCPU       44.88
 TTTTTTTTTTTTTTTTTTTTTTTTTTTTTT MONMO3      TELAPSE       47.50 TCPU       44.92
 NUMERICALLY INTEGRATED DENSITY    287.9999431838
 TTTTTTTTTTTTTTTTTTTTTTTTTTTTTT NUMDFT      TELAPSE       48.04 TCPU       45.46
 CYC   6 ETOT(AU) -8.429095558149E+03 DETOT -6.41E-04 tst  1.41E-05 PX  4.93E-03
 TTTTTTTTTTTTTTTTTTTTTTTTTTTTTT DIIS        TELAPSE       48.07 TCPU       45.48
 DIIS TEST: 0.32186E-02 AT SCF   CYCLE   6 - DIIS ACTIVE - HISTORY:     6 CYCLES
 TTTTTTTTTTTTTTTTTTTTTTTTTTTTTT FDIK        TELAPSE       48.62 TCPU       46.04
 INSULATING STATE
 TOP OF VALENCE BANDS -    BAND    144; K  106; EIG -2.5512327E-01 AU
 TOP OF VALENCE BANDS -    BAND    144; K    1; EIG -2.5611612E-01 AU
 BOTTOM OF VIRTUAL BANDS - BAND    145; K   70; EIG -4.4058396E-02 AU
 INDIRECT ENERGY BAND GAP:   5.7434 eV
 BOTTOM OF VIRTUAL BANDS - BAND    145; K    1; EIG -2.7631827E-02 AU
 TTTTTTTTTTTTTTTTTTTTTTTTTTTTTT PDIG        TELAPSE       48.82 TCPU       46.23
 TTTTTTTTTTTTTTTTTTTTTTTTTTTTTT MOQGAD      TELAPSE       48.83 TCPU       46.24
 TTTTTTTTTTTTTTTTTTTTTTTTTTTTTT SHELLXN     TELAPSE       53.59 TCPU       50.97
 TTTTTTTTTTTTTTTTTTTTTTTTTTTTTT MONMO3      TELAPSE       53.64 TCPU       51.02
 NUMERICALLY INTEGRATED DENSITY    287.9999430409
 TTTTTTTTTTTTTTTTTTTTTTTTTTTTTT NUMDFT      TELAPSE       54.12 TCPU       51.50
 CYC   7 ETOT(AU) -8.429096008624E+03 DETOT -4.50E-04 tst  3.54E-06 PX  2.95E-03
 TTTTTTTTTTTTTTTTTTTTTTTTTTTTTT DIIS        TELAPSE       54.15 TCPU       51.52
 DIIS TEST: 0.14706E-04 AT SCF   CYCLE   7 - DIIS ACTIVE - HISTORY:     7 CYCLES
 TTTTTTTTTTTTTTTTTTTTTTTTTTTTTT FDIK        TELAPSE       54.70 TCPU       52.07
 INSULATING STATE
 TOP OF VALENCE BANDS -    BAND    144; K  106; EIG -2.5526030E-01 AU
 TOP OF VALENCE BANDS -    BAND    144; K    1; EIG -2.5624810E-01 AU
 BOTTOM OF VIRTUAL BANDS - BAND    145; K   70; EIG -4.4085180E-02 AU
 INDIRECT ENERGY BAND GAP:   5.7464 eV
 BOTTOM OF VIRTUAL BANDS - BAND    145; K    1; EIG -2.7670337E-02 AU
 TTTTTTTTTTTTTTTTTTTTTTTTTTTTTT PDIG        TELAPSE       54.93 TCPU       52.30
 TTTTTTTTTTTTTTTTTTTTTTTTTTTTTT MOQGAD      TELAPSE       54.94 TCPU       52.31
 TTTTTTTTTTTTTTTTTTTTTTTTTTTTTT SHELLXN     TELAPSE       59.70 TCPU       57.03
 TTTTTTTTTTTTTTTTTTTTTTTTTTTTTT MONMO3      TELAPSE       59.74 TCPU       57.08
 NUMERICALLY INTEGRATED DENSITY    287.9999430451
 TTTTTTTTTTTTTTTTTTTTTTTTTTTTTT NUMDFT      TELAPSE       60.42 TCPU       57.75
 CYC   8 ETOT(AU) -8.429096011423E+03 DETOT -2.80E-06 tst  2.33E-08 PX  1.76E-03
 TTTTTTTTTTTTTTTTTTTTTTTTTTTTTT DIIS        TELAPSE       60.44 TCPU       57.78
 DIIS TEST: 0.39144E-05 AT SCF   CYCLE   8 - DIIS ACTIVE - HISTORY:     8 CYCLES
 TTTTTTTTTTTTTTTTTTTTTTTTTTTTTT FDIK        TELAPSE       61.00 TCPU       58.32
 INSULATING STATE
 TOP OF VALENCE BANDS -    BAND    144; K  106; EIG -2.5528726E-01 AU
 TOP OF VALENCE BANDS -    BAND    144; K    1; EIG -2.5627728E-01 AU
 BOTTOM OF VIRTUAL BANDS - BAND    145; K   70; EIG -4.4100255E-02 AU
 INDIRECT ENERGY BAND GAP:   5.7467 eV
 BOTTOM OF VIRTUAL BANDS - BAND    145; K    1; EIG -2.7664629E-02 AU
 TTTTTTTTTTTTTTTTTTTTTTTTTTTTTT PDIG        TELAPSE       61.19 TCPU       58.52
 TTTTTTTTTTTTTTTTTTTTTTTTTTTTTT MOQGAD      TELAPSE       61.20 TCPU       58.52
 TTTTTTTTTTTTTTTTTTTTTTTTTTTTTT SHELLXN     TELAPSE       65.96 TCPU       63.26
 TTTTTTTTTTTTTTTTTTTTTTTTTTTTTT MONMO3      TELAPSE       66.01 TCPU       63.30
 NUMERICALLY INTEGRATED DENSITY    287.9999430472
 TTTTTTTTTTTTTTTTTTTTTTTTTTTTTT NUMDFT      TELAPSE       66.55 TCPU       63.84
 CYC   9 ETOT(AU) -8.429096012062E+03 DETOT -6.40E-07 tst  2.70E-09 PX  2.79E-04
 TTTTTTTTTTTTTTTTTTTTTTTTTTTTTT DIIS        TELAPSE       66.58 TCPU       63.86
 DIIS TEST: 0.29212E-06 AT SCF   CYCLE   9 - DIIS ACTIVE - HISTORY:     9 CYCLES
 TTTTTTTTTTTTTTTTTTTTTTTTTTTTTT FDIK        TELAPSE       67.12 TCPU       64.40
 INSULATING STATE
 TOP OF VALENCE BANDS -    BAND    144; K  106; EIG -2.5528995E-01 AU
 TOP OF VALENCE BANDS -    BAND    144; K    1; EIG -2.5628007E-01 AU
 BOTTOM OF VIRTUAL BANDS - BAND    145; K   70; EIG -4.4100151E-02 AU
 INDIRECT ENERGY BAND GAP:   5.7468 eV
 BOTTOM OF VIRTUAL BANDS - BAND    145; K    1; EIG -2.7674437E-02 AU
 TTTTTTTTTTTTTTTTTTTTTTTTTTTTTT PDIG        TELAPSE       67.32 TCPU       64.60
 TTTTTTTTTTTTTTTTTTTTTTTTTTTTTT MOQGAD      TELAPSE       67.32 TCPU       64.60
 TTTTTTTTTTTTTTTTTTTTTTTTTTTTTT SHELLXN     TELAPSE       72.09 TCPU       69.34
 TTTTTTTTTTTTTTTTTTTTTTTTTTTTTT MONMO3      TELAPSE       72.13 TCPU       69.38
 NUMERICALLY INTEGRATED DENSITY    287.9999430481
 TTTTTTTTTTTTTTTTTTTTTTTTTTTTTT NUMDFT      TELAPSE       72.67 TCPU       69.92
 CYC  10 ETOT(AU) -8.429096012216E+03 DETOT -1.54E-07 tst  4.78E-10 PX  1.27E-04
 TTTTTTTTTTTTTTTTTTTTTTTTTTTTTT DIIS        TELAPSE       72.70 TCPU       69.95
 DIIS TEST: 0.17641E-07 AT SCF   CYCLE  10 - DIIS ACTIVE - HISTORY:    10 CYCLES
 TTTTTTTTTTTTTTTTTTTTTTTTTTTTTT FDIK        TELAPSE       73.25 TCPU       70.49
 INSULATING STATE
 TOP OF VALENCE BANDS -    BAND    144; K  106; EIG -2.5528533E-01 AU
 TOP OF VALENCE BANDS -    BAND    144; K    1; EIG -2.5627519E-01 AU
 BOTTOM OF VIRTUAL BANDS - BAND    145; K   70; EIG -4.4094496E-02 AU
 INDIRECT ENERGY BAND GAP:   5.7468 eV
 BOTTOM OF VIRTUAL BANDS - BAND    145; K    1; EIG -2.7668142E-02 AU
 TTTTTTTTTTTTTTTTTTTTTTTTTTTTTT PDIG        TELAPSE       73.44 TCPU       70.68
 TTTTTTTTTTTTTTTTTTTTTTTTTTTTTT MOQGAD      TELAPSE       73.45 TCPU       70.69
 TTTTTTTTTTTTTTTTTTTTTTTTTTTTTT SHELLXN     TELAPSE       78.21 TCPU       75.42
 TTTTTTTTTTTTTTTTTTTTTTTTTTTTTT MONMO3      TELAPSE       78.26 TCPU       75.47
 NUMERICALLY INTEGRATED DENSITY    287.9999430476
 TTTTTTTTTTTTTTTTTTTTTTTTTTTTTT NUMDFT      TELAPSE       78.72 TCPU       75.93
 CYC  11 ETOT(AU) -8.429096012280E+03 DETOT -6.37E-08 tst  6.62E-11 PX  2.26E-05
 TTTTTTTTTTTTTTTTTTTTTTTTTTTTTT DIIS        TELAPSE       78.75 TCPU       75.95
 DIIS TEST: 0.87232E-08 AT SCF   CYCLE  11 - DIIS ACTIVE - HISTORY:    11 CYCLES
 TTTTTTTTTTTTTTTTTTTTTTTTTTTTTT FDIK        TELAPSE       79.29 TCPU       76.49
 INSULATING STATE
 TOP OF VALENCE BANDS -    BAND    144; K  106; EIG -2.5528461E-01 AU
 TOP OF VALENCE BANDS -    BAND    144; K    1; EIG -2.5627453E-01 AU
 BOTTOM OF VIRTUAL BANDS - BAND    145; K   70; EIG -4.4093924E-02 AU
 INDIRECT ENERGY BAND GAP:   5.7468 eV
 BOTTOM OF VIRTUAL BANDS - BAND    145; K    1; EIG -2.7667241E-02 AU
 TTTTTTTTTTTTTTTTTTTTTTTTTTTTTT PDIG        TELAPSE       79.49 TCPU       76.69
 TTTTTTTTTTTTTTTTTTTTTTTTTTTTTT MOQGAD      TELAPSE       79.49 TCPU       76.69
 TTTTTTTTTTTTTTTTTTTTTTTTTTTTTT SHELLXN     TELAPSE       84.27 TCPU       81.44
 TTTTTTTTTTTTTTTTTTTTTTTTTTTTTT MONMO3      TELAPSE       84.31 TCPU       81.48
 NUMERICALLY INTEGRATED DENSITY    287.9999430476
 TTTTTTTTTTTTTTTTTTTTTTTTTTTTTT NUMDFT      TELAPSE       84.86 TCPU       82.02
 CYC  12 ETOT(AU) -8.429096012281E+03 DETOT -1.14E-09 tst  4.77E-12 PX  1.15E-05
 TTTTTTTTTTTTTTTTTTTTTTTTTTTTTT DIIS        TELAPSE       84.89 TCPU       82.05
 DIIS TEST: 0.59166E-09 AT SCF   CYCLE  12 - DIIS ACTIVE - HISTORY:    12 CYCLES
 TTTTTTTTTTTTTTTTTTTTTTTTTTTTTT FDIK        TELAPSE       85.46 TCPU       82.61
 INSULATING STATE
 TOP OF VALENCE BANDS -    BAND    144; K  106; EIG -2.5528511E-01 AU
 TOP OF VALENCE BANDS -    BAND    144; K    1; EIG -2.5627505E-01 AU
 BOTTOM OF VIRTUAL BANDS - BAND    145; K   70; EIG -4.4093909E-02 AU
 INDIRECT ENERGY BAND GAP:   5.7468 eV
 BOTTOM OF VIRTUAL BANDS - BAND    145; K    1; EIG -2.7667681E-02 AU
 TTTTTTTTTTTTTTTTTTTTTTTTTTTTTT PDIG        TELAPSE       85.65 TCPU       82.81
 TTTTTTTTTTTTTTTTTTTTTTTTTTTTTT MOQGAD      TELAPSE       85.66 TCPU       82.82
 TTTTTTTTTTTTTTTTTTTTTTTTTTTTTT SHELLXN     TELAPSE       90.43 TCPU       87.55
 TTTTTTTTTTTTTTTTTTTTTTTTTTTTTT MONMO3      TELAPSE       90.47 TCPU       87.59
 NUMERICALLY INTEGRATED DENSITY    287.9999430476
 TTTTTTTTTTTTTTTTTTTTTTTTTTTTTT NUMDFT      TELAPSE       91.01 TCPU       88.13
 CYC  13 ETOT(AU) -8.429096012277E+03 DETOT  3.36E-09 tst  6.59E-13 PX  3.55E-06
 TTTTTTTTTTTTTTTTTTTTTTTTTTTTTT DIIS        TELAPSE       91.04 TCPU       88.16
 DIIS TEST: 0.39955E-10 AT SCF   CYCLE  13 - DIIS ACTIVE - HISTORY:    13 CYCLES
 TTTTTTTTTTTTTTTTTTTTTTTTTTTTTT FDIK        TELAPSE       91.59 TCPU       88.71
 INSULATING STATE
 TOP OF VALENCE BANDS -    BAND    144; K  106; EIG -2.5528512E-01 AU
 TOP OF VALENCE BANDS -    BAND    144; K    1; EIG -2.5627505E-01 AU
 BOTTOM OF VIRTUAL BANDS - BAND    145; K   70; EIG -4.4093978E-02 AU
 INDIRECT ENERGY BAND GAP:   5.7468 eV
 BOTTOM OF VIRTUAL BANDS - BAND    145; K    1; EIG -2.7667602E-02 AU
 TTTTTTTTTTTTTTTTTTTTTTTTTTTTTT PDIG        TELAPSE       91.79 TCPU       88.90
 TTTTTTTTTTTTTTTTTTTTTTTTTTTTTT MOQGAD      TELAPSE       91.79 TCPU       88.91
 TTTTTTTTTTTTTTTTTTTTTTTTTTTTTT SHELLXN     TELAPSE       96.58 TCPU       93.66
 TTTTTTTTTTTTTTTTTTTTTTTTTTTTTT MONMO3      TELAPSE       96.62 TCPU       93.70
 NUMERICALLY INTEGRATED DENSITY    287.9999430476
 TTTTTTTTTTTTTTTTTTTTTTTTTTTTTT NUMDFT      TELAPSE       97.10 TCPU       94.18
 CYC  14 ETOT(AU) -8.429096012279E+03 DETOT -1.58E-09 tst  9.28E-14 PX  1.12E-06
 TTTTTTTTTTTTTTTTTTTTTTTTTTTTTT DIIS        TELAPSE       97.13 TCPU       94.21
 DIIS TEST: 0.12450E-11 AT SCF   CYCLE  14 - DIIS ACTIVE - HISTORY:    14 CYCLES
 TTTTTTTTTTTTTTTTTTTTTTTTTTTTTT FDIK        TELAPSE       97.67 TCPU       94.75
 INSULATING STATE
 TOP OF VALENCE BANDS -    BAND    144; K  106; EIG -2.5528515E-01 AU
 TOP OF VALENCE BANDS -    BAND    144; K    1; EIG -2.5627508E-01 AU
 BOTTOM OF VIRTUAL BANDS - BAND    145; K   70; EIG -4.4093939E-02 AU
 INDIRECT ENERGY BAND GAP:   5.7468 eV
 BOTTOM OF VIRTUAL BANDS - BAND    145; K    1; EIG -2.7667639E-02 AU
 TTTTTTTTTTTTTTTTTTTTTTTTTTTTTT PDIG        TELAPSE       97.87 TCPU       94.95
 TTTTTTTTTTTTTTTTTTTTTTTTTTTTTT MOQGAD      TELAPSE       97.88 TCPU       94.95
 TTTTTTTTTTTTTTTTTTTTTTTTTTTTTT SHELLXN     TELAPSE      102.64 TCPU       99.68
 TTTTTTTTTTTTTTTTTTTTTTTTTTTTTT MONMO3      TELAPSE      102.68 TCPU       99.72
 NUMERICALLY INTEGRATED DENSITY    287.9999430476
 TTTTTTTTTTTTTTTTTTTTTTTTTTTTTT NUMDFT      TELAPSE      103.08 TCPU      100.12
 CYC  15 ETOT(AU) -8.429096012279E+03 DETOT  2.51E-10 tst  2.44E-15 PX  1.96E-07
 TTTTTTTTTTTTTTTTTTTTTTTTTTTTTT DIIS        TELAPSE      103.10 TCPU      100.14
 DIIS TEST: 0.11267E-12 AT SCF   CYCLE  15 - DIIS ACTIVE - HISTORY:    15 CYCLES
 TTTTTTTTTTTTTTTTTTTTTTTTTTTTTT FDIK        TELAPSE      103.65 TCPU      100.69
 INSULATING STATE
 TOP OF VALENCE BANDS -    BAND    144; K  106; EIG -2.5528514E-01 AU
 TOP OF VALENCE BANDS -    BAND    144; K    1; EIG -2.5627508E-01 AU
 BOTTOM OF VIRTUAL BANDS - BAND    145; K   70; EIG -4.4093945E-02 AU
 INDIRECT ENERGY BAND GAP:   5.7468 eV
 BOTTOM OF VIRTUAL BANDS - BAND    145; K    1; EIG -2.7667626E-02 AU
 TTTTTTTTTTTTTTTTTTTTTTTTTTTTTT PDIG        TELAPSE      103.85 TCPU      100.89
 TTTTTTTTTTTTTTTTTTTTTTTTTTTTTT MOQGAD      TELAPSE      103.85 TCPU      100.89
 TTTTTTTTTTTTTTTTTTTTTTTTTTTTTT SHELLXN     TELAPSE      108.62 TCPU      105.62
 TTTTTTTTTTTTTTTTTTTTTTTTTTTTTT MONMO3      TELAPSE      108.66 TCPU      105.66
 NUMERICALLY INTEGRATED DENSITY    287.9999430476
 TTTTTTTTTTTTTTTTTTTTTTTTTTTTTT NUMDFT      TELAPSE      109.06 TCPU      106.06
 CYC  16 ETOT(AU) -8.429096012279E+03 DETOT  4.00E-11 tst  3.47E-16 PX  9.01E-08
 TTTTTTTTTTTTTTTTTTTTTTTTTTTTTT DIIS        TELAPSE      109.08 TCPU      106.08
 DIIS TEST: 0.35120E-14 AT SCF   CYCLE  16 - DIIS ACTIVE - HISTORY:    16 CYCLES
 TTTTTTTTTTTTTTTTTTTTTTTTTTTTTT FDIK        TELAPSE      109.63 TCPU      106.62
 INSULATING STATE
 TOP OF VALENCE BANDS -    BAND    144; K  106; EIG -2.5528514E-01 AU
 TOP OF VALENCE BANDS -    BAND    144; K    1; EIG -2.5627508E-01 AU
 BOTTOM OF VIRTUAL BANDS - BAND    145; K   70; EIG -4.4093946E-02 AU
 INDIRECT ENERGY BAND GAP:   5.7468 eV
 BOTTOM OF VIRTUAL BANDS - BAND    145; K    1; EIG -2.7667629E-02 AU
 TTTTTTTTTTTTTTTTTTTTTTTTTTTTTT PDIG        TELAPSE      109.82 TCPU      106.82
 TTTTTTTTTTTTTTTTTTTTTTTTTTTTTT MOQGAD      TELAPSE      109.83 TCPU      106.82
 TTTTTTTTTTTTTTTTTTTTTTTTTTTTTT SHELLXN     TELAPSE      114.59 TCPU      111.56
 TTTTTTTTTTTTTTTTTTTTTTTTTTTTTT MONMO3      TELAPSE      114.64 TCPU      111.60
 NUMERICALLY INTEGRATED DENSITY    287.9999430476
 TTTTTTTTTTTTTTTTTTTTTTTTTTTTTT NUMDFT      TELAPSE      115.18 TCPU      112.14
 CYC  17 ETOT(AU) -8.429096012279E+03 DETOT -5.46E-12 tst  3.55E-18 PX  2.90E-08
 TTTTTTTTTTTTTTTTTTTTTTTTTTTTTT DIIS        TELAPSE      115.21 TCPU      112.16
 DIIS TEST: 0.43615E-16 AT SCF   CYCLE  17 - DIIS ACTIVE - HISTORY:    16 CYCLES
 TTTTTTTTTTTTTTTTTTTTTTTTTTTTTT FDIK        TELAPSE      115.76 TCPU      112.71
 INSULATING STATE
 TOP OF VALENCE BANDS -    BAND    144; K  106; EIG -2.5528514E-01 AU
 TOP OF VALENCE BANDS -    BAND    144; K    1; EIG -2.5627508E-01 AU
 BOTTOM OF VIRTUAL BANDS - BAND    145; K   70; EIG -4.4093946E-02 AU
 INDIRECT ENERGY BAND GAP:   5.7468 eV
 BOTTOM OF VIRTUAL BANDS - BAND    145; K    1; EIG -2.7667629E-02 AU
 TTTTTTTTTTTTTTTTTTTTTTTTTTTTTT PDIG        TELAPSE      115.96 TCPU      112.91
 TTTTTTTTTTTTTTTTTTTTTTTTTTTTTT MOQGAD      TELAPSE      115.96 TCPU      112.91
 TTTTTTTTTTTTTTTTTTTTTTTTTTTTTT SHELLXN     TELAPSE      120.71 TCPU      117.64
 ::: PSEUDO TOTAL   ENERGY                        -8.0902028386315E+03
 ::: VIRIAL COEFFICIENT                            1.0195233970655E+00
 TTTTTTTTTTTTTTTTTTTTTTTTTTTTTT MONMO3      TELAPSE      120.76 TCPU      117.68
 NUMERICALLY INTEGRATED DENSITY    287.9999430476
 EXCHANGE ENERGY: -0.327360697735E+03  CORRELATION ENERGY: -0.115324759127E+02
 TTTTTTTTTTTTTTTTTTTTTTTTTTTTTT NUMDFT      TELAPSE      121.38 TCPU      118.30
 CYC  18 ETOT(AU) -8.429096012279E+03 DETOT -9.09E-12 tst  3.64E-19 PX  2.90E-08

 == SCF ENDED - CONVERGENCE ON ENERGY      E(AU) -8.4290960122787E+03 CYCLES  18


 ENERGY EXPRESSION=HARTREE+FOCK EXCH*0.25000+(PBE        EXCH)*0.75000+PBE        CORR


 TOTAL ENERGY(DFT)(AU)( 18) -8.4290960122787E+03 DE-9.1E-12 tester 3.6E-19
 TTTTTTTTTTTTTTTTTTTTTTTTTTTTTT EDFT        TELAPSE      121.39 TCPU      118.31

 *******************************************************************************
 *                             FORCE CALCULATION                               *
 *******************************************************************************

 TTTTTTTTTTTTTTTTTTTTTTTTTTTTTT NUMDFG      TELAPSE      122.44 TCPU      119.35
 INFORMATION **** EXCPOG **** EXCH. BIPO BUFFER LENGTH (WORDS) =    13844268
 INFORMATION **** GENPOG **** BIPO BUFFER LENGTH (WORDS) =     3076800
 TTTTTTTTTTTTTTTTTTTTTTTTTTTTTT SHELXG      TELAPSE      151.59 TCPU      148.30

 CARTESIAN FORCES IN HARTREE/BOHR (ANALYTICAL)
   ATOM                     X                   Y                   Z
   1  30             8.847530267879E-04 -3.238148759326E-03  1.223364065201E-03
   2  30            -8.847530267831E-04 -3.238148759170E-03 -1.223364065208E-03
   3  30            -8.847530267933E-04  3.238148759280E-03 -1.223364065204E-03
   4  30             8.847530267845E-04  3.238148759213E-03  1.223364065185E-03
   5   7            -1.605613241319E-03 -7.808259230217E-03  5.420999446253E-03
   6   7             1.605613241331E-03 -7.808259230195E-03 -5.420999446265E-03
   7   7             1.605613241332E-03  7.808259230217E-03 -5.420999446257E-03
   8   7            -1.605613241331E-03  7.808259230174E-03  5.420999446268E-03
   9   7            -1.926596905536E-03 -4.655257487857E-02  3.066917371606E-02
  10   7             1.926596905536E-03 -4.655257487850E-02 -3.066917371604E-02
  11   7             1.926596905537E-03  4.655257487855E-02 -3.066917371605E-02
  12   7            -1.926596905537E-03  4.655257487856E-02  3.066917371607E-02
  13   7             2.886837667646E-03  5.452702734659E-02 -3.645121993205E-02
  14   7            -2.886837667647E-03  5.452702734658E-02  3.645121993202E-02
  15   7            -2.886837667645E-03 -5.452702734659E-02  3.645121993205E-02
  16   7             2.886837667645E-03 -5.452702734660E-02 -3.645121993205E-02
  17   7             5.960963763069E-03 -6.622794685916E-03 -1.401852760254E-02
  18   7            -5.960963763081E-03 -6.622794685869E-03  1.401852760254E-02
  19   7            -5.960963763083E-03  6.622794685903E-03  1.401852760254E-02
  20   7             5.960963763075E-03  6.622794685869E-03 -1.401852760255E-02
  21   7             3.767847231064E-03 -3.853380526274E-03 -7.654590288770E-03
  22   7            -3.767847231062E-03 -3.853380526234E-03  7.654590288786E-03
  23   7            -3.767847231054E-03  3.853380526262E-03  7.654590288774E-03
  24   7             3.767847231071E-03  3.853380526261E-03 -7.654590288798E-03
  25   7            -9.003302259593E-03  1.116068282582E-02  2.240808375507E-02
  26   7             9.003302259598E-03  1.116068282585E-02 -2.240808375507E-02
  27   7             9.003302259589E-03 -1.116068282583E-02 -2.240808375507E-02
  28   7            -9.003302259602E-03 -1.116068282585E-02  2.240808375508E-02

 RESULTANT FORCE    -6.938893903907E-16 -1.776356839400E-14 -1.554312234475E-14

 ATOMIC PART

 SYMMETRY ALLOWED FORCES (ANALYTICAL) (DIRECTION, FORCE)

    1  1.7695061E-03    2 -6.4762975E-03    3  2.4467281E-03    4 -3.2112265E-03
    5 -1.5616518E-02    6  1.0841999E-02    7 -3.8531938E-03    8 -9.3105150E-02
    9  6.1338347E-02   10  5.7736753E-03   11  1.0905405E-01   12 -7.2902440E-02
   13  1.1921928E-02   14 -1.3245589E-02   15 -2.8037055E-02   16  7.5356945E-03
   17 -7.7067611E-03   18 -1.5309181E-02   19 -1.8006605E-02   20  2.2321366E-02
   21  4.4816168E-02

 CELL PART

 GRADIENT WITH RESPECT TO THE CELL PARAMETER IN HARTREE/BOHR
ORDER: -D/DA1X, -D/DA1Y, -D/DA1Z
       -D/DA2X, -D/DA2Y, -D/DA2Z
       -D/DA3X, -D/DA3Y, -D/DA3Z
  0.107870856692E-01  0.165150931951E-13 -0.127679458942E-01
  0.439394768380E-14  0.157673498258E-01  0.154315429133E-14
 -0.975925686409E-02 -0.530723427593E-14  0.364451343121E-01

STRESS TENSOR, IN HARTREE/BOHR^3:
ORDER: 11 12 13
       21 22 23
       31 32 33
 -0.312818852013E-04 -0.513820766651E-16  0.483132429627E-04
 -0.433473518991E-16 -0.184385508409E-03  0.262734860455E-16
  0.487710443809E-04 -0.180550179347E-16 -0.180421793724E-03

STRESS TENSOR DOES NOT CORRESPOND TO
HYDROSTATIC PRESSURE, NO PRESSURE COMPUTED!

 SYMMETRY ALLOWED FORCES (ANALYTICAL) (DIRECTION, FORCE)

    1  2.0068682E-02    2 -1.4340826E-02    3  2.0569717E-04    4 -1.1559638E-02
 TTTTTTTTTTTTTTTTTTTTTTTTTTTTTT TOTGRA      TELAPSE      152.48 TCPU      149.19
 INFORMATION **** optc001 **** GEOMETRY OUTPUT FILE
 CLASSICAL MODEL (SCHLEGEL) USED AS INITIAL HESSIAN MATRIX
 REFERENCE GEOMETRY DEFINED

 MAX GRADIENT      0.109054  THRESHOLD              0.000045 CONVERGED NO
 RMS GRADIENT      0.037490  THRESHOLD              0.000030 CONVERGED NO

 GRADIENT NORM     0.187448  GRADIENT THRESHOLD     0.500000

 EIGENVALUES OF THE ESTIMATED HESSIAN
  0.2651E-02  0.6858E-02  0.9002E-02  0.1022E-01  0.1507E-01  0.1774E-01
  0.2353E-01  0.3930E-01  0.5367E-01  0.8576E-01  0.1020      0.1542    
  0.1784      0.2053      0.3205      0.3840      0.4116      0.4395    
  0.7961      0.8451       1.023       1.031       2.009       2.751    
   2.883    

 INITIAL TRUST RADIUS    0.5000000000E+00

 PREDICTED ENERGY CHANGE    -0.102E-01

 INITIAL DISPLACEMENTS
 -0.030378 -0.060575 -0.030418 -0.045209 -0.081610 -0.049902 -0.045042 -0.055051
 -0.044170 -0.041526  0.042842 -0.085339  0.054841  0.026945 -0.001097  0.051841
  0.057078  0.023761  0.023519  0.084155  0.047794  0.106177  0.049950  0.130563
 -0.095425
 TTTTTTTTTTTTTTTTTTTTTTTTTTTTTT OPTI        TELAPSE      155.75 TCPU      152.43

 OPTOPTOPTOPTOPTOPTOPTOPTOPTOPTOPTOPTOPTOPTOPTOPTOPTOPTOPTOPTOPTOPTOPTOPTOPTOPT

 - INFORMATION ON SCF MOVED TO SCFOUT.LOG
 GEOMETRY OPTIMIZATION INFORMATION STORED IN OPTINFO.DAT

 OPTOPTOPTOPTOPTOPTOPTOPTOPTOPTOPTOPTOPTOPTOPTOPTOPTOPTOPTOPTOPTOPTOPTOPTOPTOPT
 *******************************************************************************
 COORDINATE AND CELL OPTIMIZATION - POINT    2
 *******************************************************************************
 LATTICE PARAMETERS (ANGSTROMS AND DEGREES) - BOHR = 0.5291772083 ANGSTROM
 PRIMITIVE CELL - CENTRING CODE 1/0 VOLUME=   394.013979 - DENSITY  2.494 g/cm^3
         A              B              C           ALPHA      BETA       GAMMA 
     3.47197558    16.41515381     6.95094399    90.000000  95.959857  90.000000
 *******************************************************************************
 ATOMS IN THE ASYMMETRIC UNIT    7 - ATOMS IN THE UNIT CELL:   28
     ATOM                 X/A                 Y/B                 Z/C    
 *******************************************************************************
      1 T  30 ZN    4.601143397227E-01  8.309000293356E-02  3.979275513317E-01
      2 F  30 ZN    3.988566027730E-02 -4.169099970664E-01  1.020724486683E-01
      3 F  30 ZN   -4.601143397227E-01 -8.309000293356E-02 -3.979275513317E-01
      4 F  30 ZN   -3.988566027730E-02  4.169099970664E-01 -1.020724486683E-01
      5 T   7 N    -5.292227937231E-02  1.361596891220E-01  3.333929353959E-01
      6 F   7 N    -4.470777206277E-01 -3.638403108780E-01  1.666070646041E-01
      7 F   7 N     5.292227937231E-02 -1.361596891220E-01 -3.333929353959E-01
      8 F   7 N     4.470777206277E-01  3.638403108780E-01 -1.666070646041E-01
      9 T   7 N    -5.896768978233E-02  1.989293749664E-01  2.347119937085E-01
     10 F   7 N    -4.410323102177E-01 -3.010706250336E-01  2.652880062915E-01
     11 F   7 N     5.896768978233E-02 -1.989293749664E-01 -2.347119937085E-01
     12 F   7 N     4.410323102177E-01  3.010706250336E-01 -2.652880062915E-01
     13 T   7 N    -5.759887396048E-02  2.571531046752E-01  1.433386374996E-01
     14 F   7 N    -4.424011260395E-01 -2.428468953248E-01  3.566613625004E-01
     15 F   7 N     5.759887396048E-02 -2.571531046752E-01 -1.433386374996E-01
     16 F   7 N     4.424011260395E-01  2.428468953248E-01 -3.566613625004E-01
     17 T   7 N    -4.872127085952E-01  3.743593042575E-02 -3.294419074812E-01
     18 F   7 N    -1.278729140485E-02 -4.625640695743E-01 -1.705580925188E-01
     19 F   7 N     4.872127085952E-01 -3.743593042575E-02  3.294419074812E-01
     20 F   7 N     1.278729140485E-02  4.625640695743E-01  1.705580925188E-01
     21 T   7 N     4.269390767195E-01  6.786341703415E-02 -1.789919261979E-01
     22 F   7 N     7.306092328055E-02 -4.321365829658E-01 -3.210080738021E-01
     23 F   7 N    -4.269390767195E-01 -6.786341703415E-02  1.789919261979E-01
     24 F   7 N    -7.306092328055E-02  4.321365829658E-01  3.210080738021E-01
     25 T   7 N     3.476476573245E-01  9.632147587022E-02 -3.697349164624E-02
     26 F   7 N     1.523523426755E-01 -4.036785241298E-01 -4.630265083538E-01
     27 F   7 N    -3.476476573245E-01 -9.632147587022E-02  3.697349164624E-02
     28 F   7 N    -1.523523426755E-01  4.036785241298E-01  4.630265083538E-01

 T = ATOM BELONGING TO THE ASYMMETRIC UNIT

 TOTAL ENERGY(DFT)(AU)( 19) -8.4291046089555E+03     DE (AU)   -8.597E-03

 UPDATED TRUST RADIUS     0.500E+00

 SYMMETRY ALLOWED FORCES  (COORDINATE, FORCE)

    1  1.6331564E-03    2 -1.9335524E-03    3  8.5464133E-05    4 -1.0921559E-03
    5  7.5188521E-03    6 -4.4792376E-03    7  2.3780207E-03    8  3.9115816E-03
    9 -2.5669524E-03   10 -2.1892578E-03   11 -1.2386150E-02   12  8.1531983E-03
   13  4.9914081E-04   14  1.6280096E-03   15  3.8268845E-03   16 -2.6133741E-03
   17  2.2330310E-03   18  6.8133242E-03   19  3.4744507E-03   20 -4.2198289E-03
   21 -1.0449234E-02   22 -3.1099626E-03   23  4.0327990E-03   24 -3.8126870E-04
   25  2.2214379E-03

 GRADIENT NORM     0.024131  GRADIENT THRESHOLD     0.500000

 EIGENVALUES OF THE ESTIMATED HESSIAN
  0.2657E-02  0.6864E-02  0.9003E-02  0.1021E-01  0.1507E-01  0.1756E-01
  0.2354E-01  0.3932E-01  0.5366E-01  0.8642E-01  0.1017      0.1542    
  0.1783      0.2053      0.3203      0.3836      0.4116      0.4412    
  0.7958      0.8437       1.029       1.140       2.009       2.751    
   2.922    

 PREDICTED ENERGY CHANGE    -0.278E-03

 MAX GRADIENT      0.012386  THRESHOLD              0.000045 CONVERGED NO
 RMS GRADIENT      0.004826  THRESHOLD              0.000030 CONVERGED NO
 MAX DISPLAC.      0.062757  THRESHOLD              0.000180 CONVERGED NO
 RMS DISPLAC.      0.019750  THRESHOLD              0.000120 CONVERGED NO
 TTTTTTTTTTTTTTTTTTTTTTTTTTTTTT OPTI        TELAPSE      313.69 TCPU      309.07
 *******************************************************************************
 COORDINATE AND CELL OPTIMIZATION - POINT    3
 *******************************************************************************
 LATTICE PARAMETERS (ANGSTROMS AND DEGREES) - BOHR = 0.5291772083 ANGSTROM
 PRIMITIVE CELL - CENTRING CODE 1/0 VOLUME=   394.457797 - DENSITY  2.491 g/cm^3
         A              B              C           ALPHA      BETA       GAMMA 
     3.48108024    16.39547463     6.94768671    90.000000  95.862933  90.000000
 *******************************************************************************
 ATOMS IN THE ASYMMETRIC UNIT    7 - ATOMS IN THE UNIT CELL:   28
     ATOM                 X/A                 Y/B                 Z/C    
 *******************************************************************************
      1 T  30 ZN    4.610566690086E-01  8.311210002386E-02  3.984103072526E-01
      2 F  30 ZN    3.894333099140E-02 -4.168878999761E-01  1.015896927474E-01
      3 F  30 ZN   -4.610566690086E-01 -8.311210002386E-02 -3.984103072526E-01
      4 F  30 ZN   -3.894333099140E-02  4.168878999761E-01 -1.015896927474E-01
      5 T   7 N    -5.178232402788E-02  1.361874599110E-01  3.344322210058E-01
      6 F   7 N    -4.482176759721E-01 -3.638125400890E-01  1.655677789942E-01
      7 F   7 N     5.178232402788E-02 -1.361874599110E-01 -3.344322210058E-01
      8 F   7 N     4.482176759721E-01  3.638125400890E-01 -1.655677789942E-01
      9 T   7 N    -5.752320706204E-02  1.988313183378E-01  2.358483793419E-01
     10 F   7 N    -4.424767929380E-01 -3.011686816622E-01  2.641516206581E-01
     11 F   7 N     5.752320706204E-02 -1.988313183378E-01 -2.358483793419E-01
     12 F   7 N     4.424767929380E-01  3.011686816622E-01 -2.641516206581E-01
     13 T   7 N    -5.674041399117E-02  2.569692263654E-01  1.445399126736E-01
     14 F   7 N    -4.432595860088E-01 -2.430307736346E-01  3.554600873264E-01
     15 F   7 N     5.674041399117E-02 -2.569692263654E-01 -1.445399126736E-01
     16 F   7 N     4.432595860088E-01  2.430307736346E-01 -3.554600873264E-01
     17 T   7 N    -4.865870403397E-01  3.734197011880E-02 -3.291019083334E-01
     18 F   7 N    -1.341295966033E-02 -4.626580298812E-01 -1.708980916666E-01
     19 F   7 N     4.865870403397E-01 -3.734197011880E-02  3.291019083334E-01
     20 F   7 N     1.341295966033E-02  4.626580298812E-01  1.708980916666E-01
     21 T   7 N     4.269058583218E-01  6.763999128949E-02 -1.786727745395E-01
     22 F   7 N     7.309414167819E-02 -4.323600087105E-01 -3.213272254605E-01
     23 F   7 N    -4.269058583218E-01 -6.763999128949E-02  1.786727745395E-01
     24 F   7 N    -7.309414167819E-02  4.323600087105E-01  3.213272254605E-01
     25 T   7 N     3.473835344155E-01  9.599080144571E-02 -3.684514365160E-02
     26 F   7 N     1.526164655845E-01 -4.040091985543E-01 -4.631548563484E-01
     27 F   7 N    -3.473835344155E-01 -9.599080144571E-02  3.684514365160E-02
     28 F   7 N    -1.526164655845E-01  4.040091985543E-01  4.631548563484E-01

 T = ATOM BELONGING TO THE ASYMMETRIC UNIT

 TOTAL ENERGY(DFT)(AU)( 15) -8.4291049657705E+03     DE (AU)   -3.568E-04

 UPDATED TRUST RADIUS     0.500E+00

 SYMMETRY ALLOWED FORCES  (COORDINATE, FORCE)

    1  1.2849723E-03    2 -1.0017652E-03    3 -4.5107001E-05    4 -9.3891035E-04
    5 -6.7087542E-04    6  5.6833248E-04    7  1.3251665E-03    8  1.4787542E-03
    9 -9.8462254E-04   10 -1.1101964E-03   11 -1.7064739E-03   12  1.0982834E-03
   13  1.4611511E-03   14  5.9171362E-04   15  1.3033697E-03   16 -1.7968286E-04
   17 -2.0737158E-04   18  9.9552626E-04   19  3.0839741E-05   20  8.4681965E-05
   21 -1.3784379E-03   22 -2.4733645E-04   23  6.8349658E-04   24 -1.9029067E-04
   25  2.7427983E-04

 GRADIENT NORM     0.004730  GRADIENT THRESHOLD     0.500000

 EIGENVALUES OF THE ESTIMATED HESSIAN
  0.2730E-02  0.6754E-02  0.9011E-02  0.1023E-01  0.1508E-01  0.1560E-01
  0.2348E-01  0.3934E-01  0.4859E-01  0.8360E-01  0.1033      0.1507    
  0.1783      0.2042      0.3179      0.3826      0.4117      0.4461    
  0.7932      0.8240       1.027       1.218       2.009       2.777    
   2.844    

 PREDICTED ENERGY CHANGE    -0.597E-04

 MAX GRADIENT      0.001706  THRESHOLD              0.000045 CONVERGED NO
 RMS GRADIENT      0.000946  THRESHOLD              0.000030 CONVERGED NO
 MAX DISPLAC.      0.051703  THRESHOLD              0.000180 CONVERGED NO
 RMS DISPLAC.      0.015636  THRESHOLD              0.000120 CONVERGED NO
 TTTTTTTTTTTTTTTTTTTTTTTTTTTTTT OPTI        TELAPSE      447.09 TCPU      441.41
 *******************************************************************************
 COORDINATE AND CELL OPTIMIZATION - POINT    4
 *******************************************************************************
 LATTICE PARAMETERS (ANGSTROMS AND DEGREES) - BOHR = 0.5291772083 ANGSTROM
 PRIMITIVE CELL - CENTRING CODE 1/0 VOLUME=   394.301784 - DENSITY  2.492 g/cm^3
         A              B              C           ALPHA      BETA       GAMMA 
     3.48710556    16.38654952     6.93800111    90.000000  95.965484  90.000000
 *******************************************************************************
 ATOMS IN THE ASYMMETRIC UNIT    7 - ATOMS IN THE UNIT CELL:   28
     ATOM                 X/A                 Y/B                 Z/C    
 *******************************************************************************
      1 T  30 ZN    4.610472385923E-01  8.295826827005E-02  3.983169856655E-01
      2 F  30 ZN    3.895276140767E-02 -4.170417317300E-01  1.016830143345E-01
      3 F  30 ZN   -4.610472385923E-01 -8.295826827005E-02 -3.983169856655E-01
      4 F  30 ZN   -3.895276140767E-02  4.170417317300E-01 -1.016830143345E-01
      5 T   7 N    -5.204896535658E-02  1.359589841150E-01  3.345432549683E-01
      6 F   7 N    -4.479510346434E-01 -3.640410158850E-01  1.654567450317E-01
      7 F   7 N     5.204896535658E-02 -1.359589841150E-01 -3.345432549683E-01
      8 F   7 N     4.479510346434E-01  3.640410158850E-01 -1.654567450317E-01
      9 T   7 N    -5.770755042100E-02  1.986557115493E-01  2.359910354579E-01
     10 F   7 N    -4.422924495790E-01 -3.013442884507E-01  2.640089645421E-01
     11 F   7 N     5.770755042100E-02 -1.986557115493E-01 -2.359910354579E-01
     12 F   7 N     4.422924495790E-01  3.013442884507E-01 -2.640089645421E-01
     13 T   7 N    -5.733350286607E-02  2.568296540893E-01  1.447536541820E-01
     14 F   7 N    -4.426664971339E-01 -2.431703459107E-01  3.552463458180E-01
     15 F   7 N     5.733350286607E-02 -2.568296540893E-01 -1.447536541820E-01
     16 F   7 N     4.426664971339E-01  2.431703459107E-01 -3.552463458180E-01
     17 T   7 N    -4.843208070185E-01  3.745319805336E-02 -3.285739368081E-01
     18 F   7 N    -1.567919298154E-02 -4.625468019466E-01 -1.714260631919E-01
     19 F   7 N     4.843208070185E-01 -3.745319805336E-02  3.285739368081E-01
     20 F   7 N     1.567919298154E-02  4.625468019466E-01  1.714260631919E-01
     21 T   7 N     4.284038782188E-01  6.775477863247E-02 -1.782052984367E-01
     22 F   7 N     7.159612178123E-02 -4.322452213675E-01 -3.217947015633E-01
     23 F   7 N    -4.284038782188E-01 -6.775477863247E-02  1.782052984367E-01
     24 F   7 N    -7.159612178123E-02  4.322452213675E-01  3.217947015633E-01
     25 T   7 N     3.480969488685E-01  9.613868106900E-02 -3.653750447533E-02
     26 F   7 N     1.519030511315E-01 -4.038613189310E-01 -4.634624955247E-01
     27 F   7 N    -3.480969488685E-01 -9.613868106900E-02  3.653750447533E-02
     28 F   7 N    -1.519030511315E-01  4.038613189310E-01  4.634624955247E-01

 T = ATOM BELONGING TO THE ASYMMETRIC UNIT

 TOTAL ENERGY(DFT)(AU)( 12) -8.4291050651026E+03     DE (AU)   -9.933E-05

 UPDATED TRUST RADIUS     0.500E+00

 SYMMETRY ALLOWED FORCES  (COORDINATE, FORCE)

    1  1.0856409E-03    2 -2.6333426E-05    3 -4.5249440E-04    4 -5.1261386E-04
    5 -2.0016001E-03    6  1.4561864E-03    7  6.4790581E-04    8 -2.4002574E-04
    9  2.4018674E-04   10 -6.6765791E-04   11  1.2896583E-03   12 -9.3797818E-04
   13  1.5852404E-03   14  5.2252116E-04   15  9.7003542E-04   16  2.6002712E-04
   17 -9.1224271E-04   18 -8.1744742E-04   19 -6.7226559E-04   20  1.0235331E-03
   21  7.4184913E-04   22  4.0103105E-04   23 -3.4904743E-04   24 -1.0183833E-04
   25 -3.4800812E-05

 GRADIENT NORM     0.004352  GRADIENT THRESHOLD     0.500000

 EIGENVALUES OF THE ESTIMATED HESSIAN
  0.2645E-02  0.6192E-02  0.8862E-02  0.1013E-01  0.1166E-01  0.1542E-01
  0.2353E-01  0.3478E-01  0.3946E-01  0.7810E-01  0.9609E-01  0.1428    
  0.1778      0.2025      0.3129      0.3790      0.4122      0.4475    
  0.7868      0.8067       1.021       1.396       2.008       2.767    
   3.171    

 PREDICTED ENERGY CHANGE    -0.827E-04

 MAX GRADIENT      0.002002  THRESHOLD              0.000045 CONVERGED NO
 RMS GRADIENT      0.000870  THRESHOLD              0.000030 CONVERGED NO
 MAX DISPLAC.      0.067223  THRESHOLD              0.000180 CONVERGED NO
 RMS DISPLAC.      0.024839  THRESHOLD              0.000120 CONVERGED NO
 TTTTTTTTTTTTTTTTTTTTTTTTTTTTTT OPTI        TELAPSE      562.04 TCPU      555.51
 *******************************************************************************
 COORDINATE AND CELL OPTIMIZATION - POINT    5
 *******************************************************************************
 LATTICE PARAMETERS (ANGSTROMS AND DEGREES) - BOHR = 0.5291772083 ANGSTROM
 PRIMITIVE CELL - CENTRING CODE 1/0 VOLUME=   394.302031 - DENSITY  2.492 g/cm^3
         A              B              C           ALPHA      BETA       GAMMA 
     3.49555558    16.37775812     6.92652514    90.000000  96.088975  90.000000
 *******************************************************************************
 ATOMS IN THE ASYMMETRIC UNIT    7 - ATOMS IN THE UNIT CELL:   28
     ATOM                 X/A                 Y/B                 Z/C    
 *******************************************************************************
      1 T  30 ZN    4.615975078766E-01  8.267471716448E-02  3.982850573505E-01
      2 F  30 ZN    3.840249212339E-02 -4.173252828355E-01  1.017149426495E-01
      3 F  30 ZN   -4.615975078766E-01 -8.267471716448E-02 -3.982850573505E-01
      4 F  30 ZN   -3.840249212339E-02  4.173252828355E-01 -1.017149426495E-01
      5 T   7 N    -5.186029392741E-02  1.354957289850E-01  3.351023959746E-01
      6 F   7 N    -4.481397060726E-01 -3.645042710150E-01  1.648976040254E-01
      7 F   7 N     5.186029392741E-02 -1.354957289850E-01 -3.351023959746E-01
      8 F   7 N     4.481397060726E-01  3.645042710150E-01 -1.648976040254E-01
      9 T   7 N    -5.753001926783E-02  1.982952122662E-01  2.365928611189E-01
     10 F   7 N    -4.424699807322E-01 -3.017047877338E-01  2.634071388811E-01
     11 F   7 N     5.753001926783E-02 -1.982952122662E-01 -2.365928611189E-01
     12 F   7 N     4.424699807322E-01  3.017047877338E-01 -2.634071388811E-01
     13 T   7 N    -5.815179815527E-02  2.565544478022E-01  1.454438175952E-01
     14 F   7 N    -4.418482018447E-01 -2.434455521978E-01  3.545561824048E-01
     15 F   7 N     5.815179815527E-02 -2.565544478022E-01 -1.454438175952E-01
     16 F   7 N     4.418482018447E-01  2.434455521978E-01 -3.545561824048E-01
     17 T   7 N    -4.795969546648E-01  3.767131371772E-02 -3.275749585994E-01
     18 F   7 N    -2.040304533519E-02 -4.623286862823E-01 -1.724250414006E-01
     19 F   7 N     4.795969546648E-01 -3.767131371772E-02  3.275749585994E-01
     20 F   7 N     2.040304533519E-02  4.623286862823E-01  1.724250414006E-01
     21 T   7 N     4.310197536857E-01  6.796028515359E-02 -1.775000297163E-01
     22 F   7 N     6.898024631428E-02 -4.320397148464E-01 -3.224999702837E-01
     23 F   7 N    -4.310197536857E-01 -6.796028515359E-02  1.775000297163E-01
     24 F   7 N    -6.898024631428E-02  4.320397148464E-01  3.224999702837E-01
     25 T   7 N     3.490293190834E-01  9.641444389188E-02 -3.614455033821E-02
     26 F   7 N     1.509706809166E-01 -4.035855561081E-01 -4.638554496618E-01
     27 F   7 N    -3.490293190834E-01 -9.641444389188E-02  3.614455033821E-02
     28 F   7 N    -1.509706809166E-01  4.035855561081E-01  4.638554496618E-01

 T = ATOM BELONGING TO THE ASYMMETRIC UNIT

 TOTAL ENERGY(DFT)(AU)( 16) -8.4291051938642E+03     DE (AU)   -1.288E-04

 UPDATED TRUST RADIUS     0.500E+00

 SYMMETRY ALLOWED FORCES  (COORDINATE, FORCE)

    1  6.2186855E-04    2  8.9525530E-04    3 -7.6768218E-04    4  3.8804706E-04
    5 -2.1505530E-03    6  1.5554124E-03    7 -4.1527328E-04    8 -1.0510725E-03
    9  8.7608165E-04   10 -1.1790233E-04   11  2.5474030E-03   12 -1.8365650E-03
   13  1.3889218E-03   14  3.1135071E-04   15  3.2620602E-04   16  4.7866888E-04
   17 -1.0341442E-03   18 -1.5863668E-03   19 -8.9885830E-04   20  1.2679764E-03
   21  1.6094844E-03   22  6.2330537E-04   23 -1.0614528E-03   24  5.9322316E-05
   25 -1.3847488E-04

 GRADIENT NORM     0.005778  GRADIENT THRESHOLD     0.500000

 EIGENVALUES OF THE ESTIMATED HESSIAN
  0.2522E-02  0.5654E-02  0.8304E-02  0.1007E-01  0.1132E-01  0.1600E-01
  0.2358E-01  0.2810E-01  0.3962E-01  0.7453E-01  0.9325E-01  0.1396    
  0.1783      0.2026      0.3112      0.3800      0.4120      0.4506    
  0.7957      0.8057       1.018       1.373       2.008       2.762    
   3.189    

 PREDICTED ENERGY CHANGE    -0.538E-04

 MAX GRADIENT      0.002547  THRESHOLD              0.000045 CONVERGED NO
 RMS GRADIENT      0.001156  THRESHOLD              0.000030 CONVERGED NO
 MAX DISPLAC.      0.060826  THRESHOLD              0.000180 CONVERGED NO
 RMS DISPLAC.      0.020891  THRESHOLD              0.000120 CONVERGED NO
[...]
            Y    -0.0016   -0.0016    0.0063    0.0062   -0.0060   -0.0055
            Z    -0.0005   -0.0004    0.0041    0.0041   -0.0042   -0.0037
 AT.  13 N  X    -0.0152   -0.0152   -0.0009   -0.0009   -0.0010   -0.0010
            Y     0.0005    0.0005   -0.0192   -0.0193   -0.0195   -0.0194
            Z    -0.0001   -0.0001    0.0127    0.0127    0.0128    0.0128
 AT.  14 N  X     0.0152   -0.0152    0.0009   -0.0009    0.0010   -0.0010
            Y     0.0005   -0.0005   -0.0192    0.0193   -0.0195    0.0194
            Z     0.0001   -0.0001   -0.0127    0.0127   -0.0128    0.0128
 AT.  15 N  X    -0.0152    0.0152    0.0009   -0.0009   -0.0010    0.0010
            Y     0.0005   -0.0005    0.0192   -0.0193   -0.0195    0.0194
            Z    -0.0001    0.0001   -0.0127    0.0127    0.0128   -0.0128
 AT.  16 N  X     0.0152    0.0152   -0.0009   -0.0009    0.0010    0.0010
            Y     0.0005    0.0005    0.0192    0.0193   -0.0195   -0.0194
            Z     0.0001    0.0001    0.0127    0.0127   -0.0128   -0.0128
 AT.  17 N  X     0.0004   -0.0001    0.0014    0.0009   -0.0003    0.0017
            Y    -0.0001    0.0002   -0.0017   -0.0015   -0.0005   -0.0021
            Z     0.0002   -0.0002   -0.0037   -0.0021    0.0011   -0.0044
 AT.  18 N  X    -0.0004   -0.0001   -0.0014    0.0009    0.0003    0.0017
            Y    -0.0001   -0.0002   -0.0017    0.0015   -0.0005    0.0021
            Z    -0.0002   -0.0002    0.0037   -0.0021   -0.0011   -0.0044
 AT.  19 N  X     0.0004    0.0001   -0.0014    0.0009   -0.0003   -0.0017
            Y    -0.0001   -0.0002    0.0017   -0.0015   -0.0005    0.0021
            Z     0.0002    0.0002    0.0037   -0.0021    0.0011    0.0044
 AT.  20 N  X    -0.0004    0.0001    0.0014    0.0009    0.0003   -0.0017
            Y    -0.0001    0.0002    0.0017    0.0015   -0.0005   -0.0021
            Z    -0.0002    0.0002   -0.0037   -0.0021   -0.0011    0.0044
 AT.  21 N  X    -0.0004    0.0001   -0.0004   -0.0002    0.0001   -0.0004
            Y    -0.0000   -0.0003    0.0004    0.0001   -0.0002    0.0005
            Z    -0.0001    0.0002    0.0011    0.0007   -0.0004    0.0011
 AT.  22 N  X     0.0004    0.0001    0.0004   -0.0002   -0.0001   -0.0004
            Y    -0.0000    0.0003    0.0004   -0.0001   -0.0002   -0.0005
            Z     0.0001    0.0002   -0.0011    0.0007    0.0004    0.0011
 AT.  23 N  X    -0.0004   -0.0001    0.0004   -0.0002    0.0001    0.0004
            Y    -0.0000    0.0003   -0.0004    0.0001   -0.0002   -0.0005
            Z    -0.0001   -0.0002   -0.0011    0.0007   -0.0004   -0.0011
 AT.  24 N  X     0.0004   -0.0001   -0.0004   -0.0002   -0.0001    0.0004
            Y    -0.0000   -0.0003   -0.0004   -0.0001   -0.0002    0.0005
            Z     0.0001   -0.0002    0.0011    0.0007    0.0004   -0.0011
 AT.  25 N  X     0.0004    0.0001   -0.0010   -0.0007    0.0002   -0.0012
            Y     0.0001    0.0003    0.0012    0.0009   -0.0003    0.0014
            Z     0.0000   -0.0001    0.0023    0.0015   -0.0006    0.0029
 AT.  26 N  X    -0.0004    0.0001    0.0010   -0.0007   -0.0002   -0.0012
            Y     0.0001   -0.0003    0.0012   -0.0009   -0.0003   -0.0014
            Z    -0.0000   -0.0001   -0.0023    0.0015    0.0006    0.0029
 AT.  27 N  X     0.0004   -0.0001    0.0010   -0.0007    0.0002    0.0012
            Y     0.0001   -0.0003   -0.0012    0.0009   -0.0003   -0.0014
            Z     0.0000    0.0001   -0.0023    0.0015   -0.0006   -0.0029
 AT.  28 N  X    -0.0004   -0.0001   -0.0010   -0.0007   -0.0002    0.0012
            Y     0.0001    0.0003   -0.0012   -0.0009   -0.0003    0.0014
            Z    -0.0000    0.0001    0.0023    0.0015    0.0006   -0.0029

 FREQ(CM**-1)   1355.19   1358.05   1370.95   1371.15   2203.49   2209.48

 AT.   1 ZN X     0.0000    0.0000    0.0000    0.0000    0.0000   -0.0000
            Y     0.0002    0.0003   -0.0004   -0.0004   -0.0001    0.0001
            Z     0.0002    0.0002    0.0002    0.0002    0.0001    0.0002
 AT.   2 ZN X    -0.0000    0.0000   -0.0000    0.0000   -0.0000    0.0000
            Y     0.0002   -0.0003   -0.0004    0.0004   -0.0001    0.0001
            Z    -0.0002    0.0002   -0.0002    0.0002   -0.0001   -0.0002
 AT.   3 ZN X     0.0000    0.0000   -0.0000   -0.0000   -0.0000   -0.0000
            Y     0.0002    0.0003    0.0004    0.0004    0.0001    0.0001
            Z     0.0002    0.0002   -0.0002   -0.0002   -0.0001    0.0002
 AT.   4 ZN X    -0.0000    0.0000    0.0000   -0.0000    0.0000    0.0000
            Y     0.0002   -0.0003    0.0004   -0.0004    0.0001    0.0001
            Z    -0.0002    0.0002    0.0002   -0.0002    0.0001   -0.0002
 AT.   5 N  X     0.0000   -0.0001   -0.0001   -0.0002   -0.0002    0.0000
            Y     0.0009   -0.0021   -0.0035   -0.0042   -0.0037    0.0014
            Z    -0.0002    0.0016    0.0023    0.0027    0.0021   -0.0012
 AT.   6 N  X    -0.0000   -0.0001    0.0001   -0.0002    0.0002   -0.0000
            Y     0.0009    0.0021   -0.0035    0.0042   -0.0037    0.0014
            Z     0.0002    0.0016   -0.0023    0.0027   -0.0021    0.0012
 AT.   7 N  X     0.0000   -0.0001    0.0001    0.0002    0.0002    0.0000
            Y     0.0009   -0.0021    0.0035    0.0042    0.0037    0.0014
            Z    -0.0002    0.0016   -0.0023   -0.0027   -0.0021   -0.0012
 AT.   8 N  X    -0.0000   -0.0001   -0.0001    0.0002   -0.0002   -0.0000
            Y     0.0009    0.0021    0.0035   -0.0042    0.0037    0.0014
            Z     0.0002    0.0016    0.0023   -0.0027    0.0021    0.0012
 AT.   9 N  X     0.0000    0.0000    0.0000    0.0000    0.0007   -0.0003
            Y    -0.0002    0.0002    0.0002    0.0003    0.0142   -0.0057
            Z    -0.0000   -0.0002   -0.0004   -0.0005   -0.0091    0.0037
 AT.  10 N  X    -0.0000    0.0000   -0.0000    0.0000   -0.0007    0.0003
            Y    -0.0002   -0.0002    0.0002   -0.0003    0.0142   -0.0057
            Z     0.0000   -0.0002    0.0004   -0.0005    0.0091   -0.0037
 AT.  11 N  X     0.0000    0.0000   -0.0000   -0.0000   -0.0007   -0.0003
            Y    -0.0002    0.0002   -0.0002   -0.0003   -0.0142   -0.0057
            Z    -0.0000   -0.0002    0.0004    0.0005    0.0091    0.0037
 AT.  12 N  X    -0.0000    0.0000    0.0000   -0.0000    0.0007    0.0003
            Y    -0.0002   -0.0002   -0.0002    0.0003   -0.0142   -0.0057
            Z     0.0000   -0.0002   -0.0004    0.0005   -0.0091   -0.0037
 AT.  13 N  X    -0.0000    0.0001    0.0001    0.0001   -0.0005    0.0002
            Y    -0.0006    0.0017    0.0026    0.0031   -0.0100    0.0041
            Z     0.0004   -0.0010   -0.0016   -0.0020    0.0066   -0.0027
 AT.  14 N  X     0.0000    0.0001   -0.0001    0.0001    0.0005   -0.0002
            Y    -0.0006   -0.0017    0.0026   -0.0031   -0.0100    0.0041
            Z    -0.0004   -0.0010    0.0016   -0.0020   -0.0066    0.0027
 AT.  15 N  X    -0.0000    0.0001   -0.0001   -0.0001    0.0005    0.0002
            Y    -0.0006    0.0017   -0.0026   -0.0031    0.0100    0.0041
            Z     0.0004   -0.0010    0.0016    0.0020   -0.0066   -0.0027
 AT.  16 N  X     0.0000    0.0001    0.0001   -0.0001   -0.0005   -0.0002
            Y    -0.0006   -0.0017   -0.0026    0.0031    0.0100    0.0041
            Z    -0.0004   -0.0010   -0.0016    0.0020    0.0066    0.0027
 AT.  17 N  X     0.0102    0.0102    0.0098    0.0098   -0.0018   -0.0024
            Y    -0.0131   -0.0133   -0.0129   -0.0129    0.0022    0.0029
            Z    -0.0267   -0.0264   -0.0269   -0.0268    0.0048    0.0061
 AT.  18 N  X    -0.0102    0.0102   -0.0098    0.0098    0.0018    0.0024
            Y    -0.0131    0.0133   -0.0129    0.0129    0.0022    0.0029
            Z     0.0267   -0.0264    0.0269   -0.0268   -0.0048   -0.0061
 AT.  19 N  X     0.0102    0.0102   -0.0098   -0.0098    0.0018   -0.0024
            Y    -0.0131   -0.0133    0.0129    0.0129   -0.0022    0.0029
            Z    -0.0267   -0.0264    0.0269    0.0268   -0.0048    0.0061
 AT.  20 N  X    -0.0102    0.0102    0.0098   -0.0098   -0.0018    0.0024
            Y    -0.0131    0.0133    0.0129   -0.0129   -0.0022    0.0029
            Z     0.0267   -0.0264   -0.0269    0.0268    0.0048   -0.0061
 AT.  21 N  X    -0.0022   -0.0021   -0.0019   -0.0019    0.0062    0.0081
            Y     0.0028    0.0027    0.0022    0.0022   -0.0075   -0.0100
            Z     0.0053    0.0051    0.0046    0.0046   -0.0157   -0.0205
 AT.  22 N  X     0.0022   -0.0021    0.0019   -0.0019   -0.0062   -0.0081
            Y     0.0028   -0.0027    0.0022   -0.0022   -0.0075   -0.0100
            Z    -0.0053    0.0051   -0.0046    0.0046    0.0157    0.0205
 AT.  23 N  X    -0.0022   -0.0021    0.0019    0.0019   -0.0062    0.0081
            Y     0.0028    0.0027   -0.0022   -0.0022    0.0075   -0.0100
            Z     0.0053    0.0051   -0.0046   -0.0046    0.0157   -0.0205
 AT.  24 N  X     0.0022   -0.0021   -0.0019    0.0019    0.0062   -0.0081
            Y     0.0028   -0.0027   -0.0022    0.0022    0.0075   -0.0100
            Z    -0.0053    0.0051    0.0046   -0.0046   -0.0157    0.0205
 AT.  25 N  X    -0.0082   -0.0082   -0.0079   -0.0079   -0.0043   -0.0055
            Y     0.0096    0.0095    0.0093    0.0092    0.0051    0.0067
            Z     0.0199    0.0199    0.0193    0.0192    0.0107    0.0137
 AT.  26 N  X     0.0082   -0.0082    0.0079   -0.0079    0.0043    0.0055
            Y     0.0096   -0.0095    0.0093   -0.0092    0.0051    0.0067
            Z    -0.0199    0.0199   -0.0193    0.0192   -0.0107   -0.0137
 AT.  27 N  X    -0.0082   -0.0082    0.0079    0.0079    0.0043   -0.0055
            Y     0.0096    0.0095   -0.0093   -0.0092   -0.0051    0.0067
            Z     0.0199    0.0199   -0.0193   -0.0192   -0.0107    0.0137
 AT.  28 N  X     0.0082   -0.0082   -0.0079    0.0079   -0.0043    0.0055
            Y     0.0096   -0.0095   -0.0093    0.0092   -0.0051    0.0067
            Z    -0.0199    0.0199    0.0193   -0.0192    0.0107   -0.0137

 FREQ(CM**-1)   2212.97   2223.48   2239.90   2246.88   2258.91   2274.53

 AT.   1 ZN X     0.0000    0.0000    0.0000   -0.0000   -0.0000   -0.0000
            Y     0.0000   -0.0001   -0.0002    0.0000   -0.0000    0.0000
            Z    -0.0002    0.0001    0.0001    0.0000    0.0000   -0.0000
 AT.   2 ZN X     0.0000    0.0000   -0.0000   -0.0000    0.0000   -0.0000
            Y    -0.0000    0.0001   -0.0002   -0.0000   -0.0000   -0.0000
            Z    -0.0002    0.0001   -0.0001    0.0000   -0.0000   -0.0000
 AT.   3 ZN X     0.0000   -0.0000    0.0000   -0.0000    0.0000    0.0000
            Y     0.0000    0.0001   -0.0002    0.0000    0.0000   -0.0000
            Z    -0.0002   -0.0001    0.0001    0.0000   -0.0000    0.0000
 AT.   4 ZN X     0.0000   -0.0000   -0.0000   -0.0000   -0.0000    0.0000
            Y    -0.0000   -0.0001   -0.0002   -0.0000    0.0000    0.0000
            Z    -0.0002   -0.0001   -0.0001    0.0000    0.0000    0.0000
 AT.   5 N  X     0.0002   -0.0001   -0.0003    0.0002    0.0002    0.0002
            Y     0.0031   -0.0020   -0.0057    0.0049    0.0045    0.0059
            Z    -0.0017    0.0012    0.0036   -0.0031   -0.0028   -0.0038
 AT.   6 N  X     0.0002   -0.0001    0.0003    0.0002   -0.0002    0.0002
            Y    -0.0031    0.0020   -0.0057   -0.0049    0.0045   -0.0059
            Z    -0.0017    0.0012   -0.0036   -0.0031    0.0028   -0.0038
 AT.   7 N  X     0.0002    0.0001   -0.0003    0.0002   -0.0002   -0.0002
            Y     0.0031    0.0020   -0.0057    0.0049   -0.0045   -0.0059
            Z    -0.0017   -0.0012    0.0036   -0.0031    0.0028    0.0038
 AT.   8 N  X     0.0002    0.0001    0.0003    0.0002    0.0002   -0.0002
            Y    -0.0031   -0.0020   -0.0057   -0.0049   -0.0045    0.0059
            Z    -0.0017   -0.0012   -0.0036   -0.0031   -0.0028    0.0038
 AT.   9 N  X    -0.0005    0.0004    0.0010   -0.0008   -0.0007   -0.0009
            Y    -0.0113    0.0077    0.0199   -0.0174   -0.0152   -0.0192
            Z     0.0074   -0.0049   -0.0129    0.0112    0.0098    0.0124
 AT.  10 N  X    -0.0005    0.0004   -0.0010   -0.0008    0.0007   -0.0009
            Y     0.0113   -0.0077    0.0199    0.0174   -0.0152    0.0192
            Z     0.0074   -0.0049    0.0129    0.0112   -0.0098    0.0124
 AT.  11 N  X    -0.0005   -0.0004    0.0010   -0.0008    0.0007    0.0009
            Y    -0.0113   -0.0077    0.0199   -0.0174    0.0152    0.0192
            Z     0.0074    0.0049   -0.0129    0.0112   -0.0098   -0.0124
 AT.  12 N  X    -0.0005   -0.0004   -0.0010   -0.0008   -0.0007    0.0009
            Y     0.0113    0.0077    0.0199    0.0174    0.0152   -0.0192
            Z     0.0074    0.0049    0.0129    0.0112    0.0098   -0.0124
 AT.  13 N  X     0.0004   -0.0003   -0.0007    0.0007    0.0006    0.0007
            Y     0.0079   -0.0053   -0.0138    0.0121    0.0106    0.0131
            Z    -0.0052    0.0034    0.0091   -0.0080   -0.0070   -0.0086
 AT.  14 N  X     0.0004   -0.0003    0.0007    0.0007   -0.0006    0.0007
            Y    -0.0079    0.0053   -0.0138   -0.0121    0.0106   -0.0131
            Z    -0.0052    0.0034   -0.0091   -0.0080    0.0070   -0.0086
 AT.  15 N  X     0.0004    0.0003   -0.0007    0.0007   -0.0006   -0.0007
            Y     0.0079    0.0053   -0.0138    0.0121   -0.0106   -0.0131
            Z    -0.0052   -0.0034    0.0091   -0.0080    0.0070    0.0086
 AT.  16 N  X     0.0004    0.0003    0.0007    0.0007    0.0006   -0.0007
            Y    -0.0079   -0.0053   -0.0138   -0.0121   -0.0106    0.0131
            Z    -0.0052   -0.0034   -0.0091   -0.0080   -0.0070    0.0086
 AT.  17 N  X     0.0021   -0.0023   -0.0007   -0.0014   -0.0017   -0.0010
            Y    -0.0029    0.0029    0.0013    0.0018    0.0022    0.0012
            Z    -0.0052    0.0062    0.0017    0.0037    0.0047    0.0026
 AT.  18 N  X     0.0021   -0.0023    0.0007   -0.0014    0.0017   -0.0010
            Y     0.0029   -0.0029    0.0013   -0.0018    0.0022   -0.0012
            Z    -0.0052    0.0062   -0.0017    0.0037   -0.0047    0.0026
 AT.  19 N  X     0.0021    0.0023   -0.0007   -0.0014    0.0017    0.0010
            Y    -0.0029   -0.0029    0.0013    0.0018   -0.0022   -0.0012
            Z    -0.0052   -0.0062    0.0017    0.0037   -0.0047   -0.0026
 AT.  20 N  X     0.0021    0.0023    0.0007   -0.0014   -0.0017    0.0010
            Y     0.0029    0.0029    0.0013   -0.0018   -0.0022    0.0012
            Z    -0.0052   -0.0062   -0.0017    0.0037    0.0047   -0.0026
 AT.  21 N  X    -0.0070    0.0077    0.0023    0.0045    0.0056    0.0030
            Y     0.0087   -0.0095   -0.0028   -0.0056   -0.0069   -0.0037
            Z     0.0179   -0.0197   -0.0058   -0.0115   -0.0142   -0.0077
 AT.  22 N  X    -0.0070    0.0077   -0.0023    0.0045   -0.0056    0.0030
            Y    -0.0087    0.0095   -0.0028    0.0056   -0.0069    0.0037
            Z     0.0179   -0.0197    0.0058   -0.0115    0.0142   -0.0077
 AT.  23 N  X    -0.0070   -0.0077    0.0023    0.0045   -0.0056   -0.0030
            Y     0.0087    0.0095   -0.0028   -0.0056    0.0069    0.0037
            Z     0.0179    0.0197   -0.0058   -0.0115    0.0142    0.0077
 AT.  24 N  X    -0.0070   -0.0077   -0.0023    0.0045    0.0056   -0.0030
            Y    -0.0087   -0.0095   -0.0028    0.0056    0.0069   -0.0037
            Z     0.0179    0.0197    0.0058   -0.0115   -0.0142    0.0077
 AT.  25 N  X     0.0048   -0.0053   -0.0016   -0.0030   -0.0038   -0.0020
            Y    -0.0058    0.0065    0.0018    0.0038    0.0047    0.0025
            Z    -0.0120    0.0133    0.0040    0.0075    0.0093    0.0049
 AT.  26 N  X     0.0048   -0.0053    0.0016   -0.0030    0.0038   -0.0020
            Y     0.0058   -0.0065    0.0018   -0.0038    0.0047   -0.0025
            Z    -0.0120    0.0133   -0.0040    0.0075   -0.0093    0.0049
 AT.  27 N  X     0.0048    0.0053   -0.0016   -0.0030    0.0038    0.0020
            Y    -0.0058   -0.0065    0.0018    0.0038   -0.0047   -0.0025
            Z    -0.0120   -0.0133    0.0040    0.0075   -0.0093   -0.0049
 AT.  28 N  X     0.0048    0.0053    0.0016   -0.0030   -0.0038    0.0020
            Y     0.0058    0.0065    0.0018   -0.0038   -0.0047    0.0025
            Z    -0.0120   -0.0133   -0.0040    0.0075    0.0093   -0.0049

 *******************************************************************************

 VIBRATIONAL TEMPERATURES (K) [MODE NUMBER;IRREP]

 TO MODES
    34.2 [   4;Au ]    50.8 [   5;Bu ]    54.4 [   6;Au ]    59.7 [   7;Ag ]
    75.0 [   8;Bg ]    85.7 [   9;Bg ]    88.5 [  10;Ag ]    91.7 [  11;Au ]
   109.1 [  12;Ag ]   113.9 [  13;Bg ]   118.7 [  14;Bu ]   127.9 [  15;Bg ]
   128.3 [  16;Bu ]   132.6 [  17;Au ]   133.9 [  18;Ag ]   160.4 [  19;Bg ]
   160.5 [  20;Au ]   173.8 [  21;Ag ]   174.6 [  22;Bu ]   180.0 [  23;Bg ]
   182.7 [  24;Bu ]   184.9 [  25;Ag ]   185.1 [  26;Au ]   205.6 [  27;Ag ]
   209.7 [  28;Bg ]   209.8 [  29;Ag ]   215.6 [  30;Bg ]   235.2 [  31;Au ]
   235.7 [  32;Bu ]   292.6 [  33;Ag ]   297.6 [  34;Bu ]   298.6 [  35;Bg ]
   304.7 [  36;Au ]   393.9 [  37;Au ]   395.5 [  38;Bu ]   403.3 [  39;Au ]
   419.3 [  40;Bg ]   424.4 [  41;Ag ]   436.3 [  42;Bu ]   499.7 [  43;Ag ]
   500.6 [  44;Bg ]   530.2 [  45;Bg ]   530.7 [  46;Ag ]   586.0 [  47;Au ]
   610.8 [  48;Bu ]   631.1 [  49;Bg ]   631.6 [  50;Au ]   635.9 [  51;Ag ]
   636.7 [  52;Bu ]   847.7 [  53;Ag ]   847.8 [  54;Bu ]   848.0 [  55;Au ]
   849.5 [  56;Bg ]   865.3 [  57;Au ]   865.4 [  58;Bu ]   867.5 [  59;Ag ]
   867.6 [  60;Bg ]   985.6 [  61;Au ]   991.0 [  62;Ag ]   991.4 [  63;Bg ]
   994.1 [  64;Bu ]  1033.5 [  65;Bu ]  1033.6 [  66;Ag ]  1034.4 [  67;Au ]
  1034.6 [  68;Bg ]  1893.2 [  69;Ag ]  1895.7 [  70;Bu ]  1901.5 [  71;Au ]
  1912.1 [  72;Bg ]  1949.8 [  73;Au ]  1953.9 [  74;Bu ]  1972.5 [  75;Ag ]
  1972.8 [  76;Bg ]  3170.3 [  77;Ag ]  3178.9 [  78;Au ]  3184.0 [  79;Bu ]
  3199.1 [  80;Bg ]  3222.7 [  81;Au ]  3232.8 [  82;Bu ]  3250.1 [  83;Ag ]
  3272.5 [  84;Bg ]

 *******************************************************************************

 HARMONIC VIBRATIONAL CONTRIBUTIONS TO THERMODYNAMIC FUNCTIONS AT GIVEN
 TEMPERATURE AND PRESSURE:

 (EL = ELECTRONIC ENERGY
  E0 = ZERO-POINT ENERGY
  ET = THERMAL CONTRIBUTION TO THE VIBRATIONAL ENERGY
  PV = PRESSURE * VOLUME
  TS = TEMPERATURE * ENTROPY)

                          AU/CELL             EV/CELL                 KJ/MOL
 EL            :   -8429.105720700116 -229367.627485104167   -22130613.95092903
 E0            :       0.110357664414       3.002984717485         289.74400709


 *******************************************************************************

 THERMODYNAMIC FUNCTIONS WITH VIBRATIONAL CONTRIBUTIONS

 AT (T =  298.15 K, P =   0.10132500E+00 MPA):

                          AU/CELL             EV/CELL                 KJ/MOL
 ET            :       0.031635206849       0.860837742517          83.05822388
 PV            :       0.000009183440       0.000249894115           0.02411112
 TS            :       0.066643244778       1.813454884686         174.97181451
 ET+PV-TS      :      -0.034998854489      -0.952367248054         -91.88947951
 EL+E0+ET+PV-TS:   -8429.030361890193 -229365.576867634780   -22130416.09640146

 OTHER THERMODYNAMIC FUNCTIONS:

                      mHARTREE/(CELL*K)     mEV/(CELL*K)              J/(MOL*K)
 ENTROPY       :       0.223522538247       6.082357486788         586.85834146
 HEAT CAPACITY :       0.166534368327       4.531630545824         437.23592242

 *******************************************************************************
 TTTTTTTTTTTTTTTTTTTTTTTTTTTTTT END         TELAPSE    22219.72 TCPU    22018.06
 EEEEEEEEEE TERMINATION  DATE 05 09 2023 TIME 23:25:45.0
