         256 PROCESSORS WORKING

         
 *******************************************************************************
 *                                                                             *
 *                               CRYSTAL23                                     *
 *                      public : 1.0.1 - October 2022                          *
 *                       HTTP://WWW.CRYSTAL.UNITO.IT                           *
 *                                                                             *
 *                              MAIN AUTHORS                                   *
 *                                                                             *
 *  R. DOVESI(1,11), V.R. SAUNDERS(2), C. ROETTI(1,11), R. ORLANDO(1,11),      *
 *  C.M. ZICOVICH-WILSON(1,3), F. PASCALE(4), B. CIVALLERI(1,11),              *
 *  K. DOLL(5), N.M. HARRISON(6), I.J. BUSH(7), Ph. D'ARCO(8),                 *
 *  M. LLUNELL(9), M. CAUSA'(10), Y. NOEL(8), L. MASCHIO(1,11), A. ERBA(1,11)  *
 *  M. RE'RAT(14), S. CASASSA(1,11), B.G. SEARLE(2), J.K. DESMARAIS(1)         *
 *                                                                             *
 *        CONTRIBUTIONS TO THE CODE HAVE ALSO BEEN GIVEN BY                    *
 *                                                                             *
 *  M. FERRABONE(1,11), M. DE LA PIERRE(1,11), M. FERRERO(1,11),               *
 *  J. BAIMA(1,11), E. ALBANESE(1,11), M.F. PEINTINGER(12), R. BAST(13),       *
 *  B. KIRTMAN(15), V. LACIVITA(1,11), R. DEMICHELIS(1,16)                     *
 *  G. BRANDEBURG(17), S. SALUSTRO(1,11), G. SANSONE(1,11)                     *
 *  M.T. RUGGIERO(18), L.E. DAGA(1), L. DONA'(1), A. COSSARD(1)                *
 *                                                                             *
 * (1) THEORETICAL CHEMISTRY GROUP - UNIVERSITA' DI TORINO - TORINO (ITALY)    *
 * (2) SCIENTIFIC COMPUTING DEPARTMENT - STFC DARESBURY (UK)                   *
 * (3) UNIVERSIDAD AUTONOMA DEL ESTADO DE MORELOS - CUERNAVACA (MEXICO)        *
 * (4) UNIVERSITE' DE LORRAINE - NANCY (FRANCE)                                *
 * (5) UNIVERSITAET STUTTGART- STUTTGART (GERMANY)                             *
 * (6) IMPERIAL COLLEGE - LONDON (UK)                                          *
 * (7) SCIENTIFIC COMPUTING DEPARTMENT - STFC RAL (UK)                         *
 * (8) UPMC - SORBONNE UNIVERSITES - PARIS (FRANCE)                            *
 * (9) UNIVERSIDAD DE BARCELONA - BARCELONA (SPAIN)                            *
 *(10) UNIVERSITA' DI NAPOLI "FEDERICO II" - NAPOLI (ITALY)                    *
 *(11) NIS - NANOSTRUCTURED INTERFACES AND SURFACES - TORINO (ITALY)           *
 *(12) MPI FUER CHEMISCHE ENERGIEKONVERSION - MUELHEIM AN DER RUHR (GERMANY)   *
 *(13) UNIVERSITY OF TROMSO - TROMSO (NORWAY)                                  *
 *(14) UNIVERSITE' DE PAU ET DES PAYS DE L'ADOUR - PAU (FRANCE)                *
 *(15) UNIVERSITY OF CALIFORNIA SANTA BARBARA - SANTA BARBARA (USA)            *
 *(16) CURTIN UNIVERSITY - PERTH (AUSTRALIA)                                   *
 *(17) UNIVERSITY COLLEGE LONDON - LONDON (UK)                                 *
 *(18) UNIVERSITY OF VERMONT - BURLINGTON (USA)                                *
 *                                                                             *
 *******************************************************************************
 EEEEEEEEEE STARTING  DATE 05 09 2023 TIME 18:12:21.0
 ICSD_CollCode77091.cif                                                          

 CRYSTAL CALCULATION
 (INPUT ACCORDING TO THE INTERNATIONAL TABLES FOR X-RAY CRYSTALLOGRAPHY)
 CRYSTAL FAMILY                       :  CUBIC       
 CRYSTAL CLASS  (GROTH - 1921)        :  CUBIC HEXAKISTETRAHEDRAL             

 SPACE GROUP (NONCENTROSYMMETRIC)     :  F -4 3 M        

 LATTICE PARAMETERS  (ANGSTROMS AND DEGREES) - CONVENTIONAL CELL
        A           B           C        ALPHA        BETA       GAMMA
     5.67400     5.67400     5.67400    90.00000    90.00000    90.00000


 NUMBER OF IRREDUCIBLE ATOMS IN THE CONVENTIONAL CELL:    2

 INPUT COORDINATES

 ATOM AT. N.              COORDINATES
   1  30     0.000000000000E+00  0.000000000000E+00  0.000000000000E+00
   2  34     7.500000000000E-01  7.500000000000E-01  2.500000000000E-01

 *******************************************************************************

 << INFORMATION >>: FROM NOW ON, ALL COORDINATES REFER TO THE PRIMITIVE CELL

 *******************************************************************************

 LATTICE PARAMETERS  (ANGSTROMS AND DEGREES) - PRIMITIVE CELL
       A          B          C        ALPHA      BETA     GAMMA        VOLUME
    4.01212    4.01212    4.01212    60.00000  60.00000  60.00000     45.667581

 COORDINATES OF THE EQUIVALENT ATOMS (FRACTIONAL UNITS)

 N. ATOM EQUIV AT. N.          X                  Y                  Z

   1   1   1   30 ZN    0.00000000000E+00  0.00000000000E+00  0.00000000000E+00

   2   2   1   34 SE    2.50000000000E-01  2.50000000000E-01  2.50000000000E-01

 NUMBER OF SYMMETRY OPERATORS         :   24
 *******************************************************************************
 * GEOMETRY EDITING - INPUT COORDINATES ARE GIVEN IN ANGSTROM         
 *******************************************************************************

 GEOMETRY NOW FULLY CONSISTENT WITH THE GROUP

 FRQFRQFRQFRQFRQFRQFRQFRQFRQFRQFRQFRQFRQFRQFRQFRQFRQFRQFRQFRQFRQFRQFRQFRQFRQFRQ

                       FREQUENCY CALCULATION

 OPTIMIZATION PERFORMED BEFORE FREQUENCIES CALCULATION
 *******************************************************************************
 INFORMATION **** NEW DEFAULT **** FINALRUN 4 FOR GEOMETRY OPTIMIZATIONS
 INFORMATION **** NEW DEFAULT **** OPTGEOM OPTIMIZES ATOMIC COORDINATES ONLY
 INFORMATION **** NEW DEFAULT **** TOL. ON ATOMIC DISP TO REDEFINE REF. GEOMETRY: 0.8 Angs
 INFORMATION **** NEW DEFAULT **** N POINTS TO REDEFINE REF. GEOMETRY: N OF OPT DEGS OF FREEDOM
 INFORMATION **** NEW DEFAULT **** TOL. ON ENERGY TO REDEFINE REF. GEOMETRY: 10**-3*(5*N. ATOMS)
 INFORMATION **** FULLOPTG **** FULL OPTIMIZATION (ATOMS AND CELL PARAMETERS)

 IMPORTANT INFORMATION:
 THE COORDINATE SYSTEM ADOPTED IN THE OPTIMIZATION IS NOT IN
 GENERAL HOMOGENEOUS UNITS. FOR THIS REASON THE GRADIENT AND 
 HESSIAN MATRIX IN TERMS OF THIS SYSTEM ARE GIVEN WITHOUT
 UNITS. FOR MORE DETAILS SEE THE MANUAL.

 *******************************************************************************
 COMBINED CELL/ATOM OPTIMIZATION CONTROL

 INITIAL TRUST RADIUS         0.50000 MAXIMUM TRUST RADIUS               0.50000
 MAXIMUM GRADIENT COMPONENT   0.00005 MAXIMUM DISPLACEMENT COMPONENT     0.00018
 R.M.S. OF GRADIENT COMPONENT 0.00003 R.M.S. OF DISPLACEMENT COMPONENTS  0.00012
 THRESHOLD ON ENERGY CHANGE 0.100E-06 EXTRAPOLATING POLYNOMIAL ORDER           2
 MAXIMUM ALLOWED NUMBER OF STEPS   -1 SORTING OF ENERGY POINTS:               NO
 ANALYTICAL  GRADIENT                 HESSIAN UPDATING                      BFGS
 STEP SIZE NUMERICAL GRADIENT 0.00100
 INITIAL HESSIAN MATRIX: SCHLEGEL MODEL 2
 *******************************************************************************

 INFORMATION **** INPFREQ **** IR INTENSITIES EVALUATED THROUGH CPHF APPROACH
 INFORMATION **** INPFREQ **** NEW DEFAULT - IMPOSING ECKART CONDITIONS TO THE HESSIAN

 GCALCO - MAX INDICES DIRECT LATTICE VECTOR    14    14    14
 NO.OF VECTORS CREATED 6999 STARS  105 RMAX    80.23839 BOHR

 GEOMETRY FOR WAVE FUNCTION - DIMENSIONALITY OF THE SYSTEM    3
 (NON PERIODIC DIRECTION: LATTICE PARAMETER FORMALLY SET TO 500)
 *******************************************************************************
 LATTICE PARAMETERS (ANGSTROMS AND DEGREES) - BOHR = 0.5291772083 ANGSTROM
 PRIMITIVE CELL - CENTRING CODE 5/0 VOLUME=    45.667581 - DENSITY  5.230 g/cm^3
         A              B              C           ALPHA      BETA       GAMMA 
     4.01212388     4.01212388     4.01212388    60.000000  60.000000  60.000000
 *******************************************************************************
 ATOMS IN THE ASYMMETRIC UNIT    2 - ATOMS IN THE UNIT CELL:    2
     ATOM                 X/A                 Y/B                 Z/C    
 *******************************************************************************
      1 T  30 ZN    0.000000000000E+00  0.000000000000E+00  0.000000000000E+00
      2 T  34 SE    2.500000000000E-01  2.500000000000E-01  2.500000000000E-01

 TRANSFORMATION MATRIX PRIMITIVE-CRYSTALLOGRAPHIC CELL
 -1.0000  1.0000  1.0000  1.0000 -1.0000  1.0000  1.0000  1.0000 -1.0000

 *******************************************************************************
 CRYSTALLOGRAPHIC CELL (VOLUME=        182.67032202)
         A              B              C           ALPHA      BETA       GAMMA 
     5.67400000     5.67400000     5.67400000    90.000000  90.000000  90.000000

 COORDINATES IN THE CRYSTALLOGRAPHIC CELL
     ATOM                 X/A                 Y/B                 Z/C    
 *******************************************************************************
      1 T  30 ZN    0.000000000000E+00  0.000000000000E+00  0.000000000000E+00
      2 T  34 SE    2.500000000000E-01 -2.500000000000E-01 -2.500000000000E-01

 T = ATOM BELONGING TO THE ASYMMETRIC UNIT

 ****   24 SYMMOPS - TRANSLATORS IN FRACTIONAL UNITS
 **** MATRICES AND TRANSLATORS IN THE CRYSTALLOGRAPHIC REFERENCE FRAME
   V INV                    ROTATION MATRICES                   TRANSLATORS
   1   1  1.00  0.00  0.00  0.00  1.00  0.00  0.00  0.00  1.00  0.00  0.00  0.00
   2   2  0.00  1.00 -0.00  1.00  0.00  0.00 -1.00 -1.00 -1.00  0.00  0.00  0.00
   3   3 -1.00 -1.00 -1.00 -0.00 -0.00  1.00  0.00  1.00 -0.00  0.00  0.00  0.00
   4   4 -0.00 -0.00  1.00 -1.00 -1.00 -1.00  1.00  0.00  0.00  0.00  0.00  0.00
   5   6  0.00  0.00  1.00  1.00 -0.00  0.00 -0.00  1.00 -0.00  0.00  0.00  0.00
   6   5  0.00  1.00  0.00 -0.00  0.00  1.00  1.00 -0.00 -0.00  0.00  0.00  0.00
   7   8  1.00 -0.00  0.00  0.00  0.00  1.00 -1.00 -1.00 -1.00  0.00  0.00  0.00
   8   7  1.00 -0.00 -0.00 -1.00 -1.00 -1.00  0.00  1.00  0.00  0.00  0.00  0.00
   9  10 -1.00 -1.00 -1.00 -0.00  1.00 -0.00  1.00 -0.00  0.00  0.00  0.00  0.00
  10   9 -0.00  0.00  1.00  0.00  1.00  0.00 -1.00 -1.00 -1.00  0.00  0.00  0.00
  11  12 -0.00  1.00 -0.00 -1.00 -1.00 -1.00  0.00  0.00  1.00  0.00  0.00  0.00
  12  11 -1.00 -1.00 -1.00  1.00 -0.00 -0.00 -0.00  0.00  1.00  0.00  0.00  0.00
  13  13  0.00  1.00  0.00  1.00  0.00 -0.00 -0.00 -0.00  1.00  0.00  0.00  0.00
  14  14  1.00  0.00 -0.00  0.00  1.00  0.00 -1.00 -1.00 -1.00  0.00  0.00  0.00
  15  16 -0.00 -0.00  1.00 -1.00 -1.00 -1.00  0.00  1.00  0.00  0.00  0.00  0.00
  16  15 -1.00 -1.00 -1.00 -0.00 -0.00  1.00  1.00  0.00 -0.00  0.00  0.00  0.00
  17  17  1.00  0.00  0.00  0.00 -0.00  1.00 -0.00  1.00 -0.00  0.00  0.00  0.00
  18  18  0.00  0.00  1.00 -0.00  1.00  0.00  1.00 -0.00 -0.00  0.00  0.00  0.00
  19  21  0.00 -0.00  1.00  1.00  0.00  0.00 -1.00 -1.00 -1.00  0.00  0.00  0.00
  20  22 -1.00 -1.00 -1.00  1.00 -0.00 -0.00 -0.00  1.00  0.00  0.00  0.00  0.00
  21  19 -0.00  1.00 -0.00 -1.00 -1.00 -1.00  1.00  0.00  0.00  0.00  0.00  0.00
  22  20 -0.00  1.00  0.00  0.00  0.00  1.00 -1.00 -1.00 -1.00  0.00  0.00  0.00
  23  23 -1.00 -1.00 -1.00 -0.00  1.00 -0.00  0.00 -0.00  1.00  0.00  0.00  0.00
  24  24  1.00 -0.00 -0.00 -1.00 -1.00 -1.00  0.00  0.00  1.00  0.00  0.00  0.00

 DIRECT LATTICE VECTORS CARTESIAN COMPONENTS (ANGSTROM)
          X                    Y                    Z
   0.000000000000E+00   0.283700000000E+01   0.283700000000E+01
   0.283700000000E+01   0.000000000000E+00   0.283700000000E+01
   0.283700000000E+01   0.283700000000E+01   0.000000000000E+00


 CARTESIAN COORDINATES - PRIMITIVE CELL
 *******************************************************************************
 *      ATOM          X(ANGSTROM)         Y(ANGSTROM)         Z(ANGSTROM)
 *******************************************************************************
    1    30 ZN    0.000000000000E+00  0.000000000000E+00  0.000000000000E+00
    2    34 SE    1.418500000000E+00 -1.418500000000E+00 -1.418500000000E+00

 *******************************************************************************
 LOCAL ATOMIC FUNCTIONS BASIS SET
 *******************************************************************************
   ATOM   X(AU)   Y(AU)   Z(AU)  N. TYPE  EXPONENT  S COEF   P COEF   D/F/G COEF
 *******************************************************************************
   1 ZN   0.000   0.000   0.000
                                  1 S  
                                         4.059E+05 2.244E-04 0.000E+00 0.000E+00
                                         6.085E+04 1.740E-03 0.000E+00 0.000E+00
                                         1.385E+04 9.051E-03 0.000E+00 0.000E+00
                                         3.920E+03 3.682E-02 0.000E+00 0.000E+00
                                         1.276E+03 1.200E-01 0.000E+00 0.000E+00
                                         4.587E+02 2.858E-01 0.000E+00 0.000E+00
                                         1.783E+02 4.109E-01 0.000E+00 0.000E+00
                                         7.061E+01 2.182E-01 0.000E+00 0.000E+00
                                  2 S  
                                         4.439E+02-2.493E-02 0.000E+00 0.000E+00
                                         1.376E+02-1.182E-01 0.000E+00 0.000E+00
                                         2.227E+01 5.537E-01 0.000E+00 0.000E+00
                                         9.522E+00 5.263E-01 0.000E+00 0.000E+00
                                  3 S  
                                         1.487E+01-2.293E-01 0.000E+00 0.000E+00
                                         2.465E+00 7.114E-01 0.000E+00 0.000E+00
                                  4 S  
                                         1.011E+00 1.000E+00 0.000E+00 0.000E+00
                                  5 S  
                                         3.230E-01 1.000E+00 0.000E+00 0.000E+00
                                  6 S  
                                         1.517E-01 1.000E+00 0.000E+00 0.000E+00
                           7-     9 P  
                                         2.205E+03 0.000E+00 2.336E-03 0.000E+00
                                         5.224E+02 0.000E+00 1.903E-02 0.000E+00
                                         1.677E+02 0.000E+00 8.996E-02 0.000E+00
                                         6.267E+01 0.000E+00 2.611E-01 0.000E+00
                                         2.511E+01 0.000E+00 4.235E-01 0.000E+00
                                         1.023E+01 0.000E+00 2.462E-01 0.000E+00
                          10-    12 P  
                                         4.071E+01 0.000E+00-3.003E-02 0.000E+00
                                         5.625E+00 0.000E+00 5.558E-01 0.000E+00
                                         2.228E+00 0.000E+00 9.558E-01 0.000E+00
                          13-    15 P  
                                         1.160E+00 0.000E+00 1.000E+00 0.000E+00
                          16-    18 P  
                                         2.625E-01 0.000E+00 1.000E+00 0.000E+00
                          19-    23 D  
                                         8.855E+01 0.000E+00 0.000E+00 1.273E-02
                                         2.572E+01 0.000E+00 0.000E+00 7.939E-02
                                         9.128E+00 0.000E+00 0.000E+00 2.449E-01
                                         3.431E+00 0.000E+00 0.000E+00 4.039E-01
                          24-    28 D  
                                         1.186E+00 0.000E+00 0.000E+00 1.000E+00
                          29-    33 D  
                                         3.309E-01 0.000E+00 0.000E+00 1.000E+00
                          34-    40 F  
                                         2.614E+00 0.000E+00 0.000E+00 1.000E+00
   2 SE   2.681  -2.681  -2.681
                                 41 S  
                                         5.311E+05 2.411E-04 0.000E+00 0.000E+00
                                         7.960E+04 1.870E-03 0.000E+00 0.000E+00
                                         1.812E+04 9.727E-03 0.000E+00 0.000E+00
                                         5.128E+03 3.960E-02 0.000E+00 0.000E+00
                                         1.670E+03 1.295E-01 0.000E+00 0.000E+00
                                         6.006E+02 3.096E-01 0.000E+00 0.000E+00
                                         2.337E+02 4.512E-01 0.000E+00 0.000E+00
                                         9.267E+01 2.458E-01 0.000E+00 0.000E+00
                                 42 S  
                                         5.716E+02-2.690E-02 0.000E+00 0.000E+00
                                         1.776E+02-1.267E-01 0.000E+00 0.000E+00
                                         2.952E+01 5.770E-01 0.000E+00 0.000E+00
                                         1.282E+01 5.637E-01 0.000E+00 0.000E+00
                                 43 S  
                                         1.985E+01-2.513E-01 0.000E+00 0.000E+00
                                         3.474E+00 7.291E-01 0.000E+00 0.000E+00
                                 44 S  
                                         1.199E+00 1.000E+00 0.000E+00 0.000E+00
                                 45 S  
                                         5.103E-01 1.000E+00 0.000E+00 0.000E+00
                                 46 S  
                                         1.500E-01 1.000E+00 0.000E+00 0.000E+00
                          47-    49 P  
                                         2.815E+03 0.000E+00 2.557E-03 0.000E+00
                                         6.669E+02 0.000E+00 2.087E-02 0.000E+00
                                         2.143E+02 0.000E+00 9.877E-02 0.000E+00
                                         8.025E+01 0.000E+00 2.847E-01 0.000E+00
                                         3.225E+01 0.000E+00 4.500E-01 0.000E+00
                                         1.311E+01 0.000E+00 2.442E-01 0.000E+00
                          50-    52 P  
                                         5.337E+01 0.000E+00-2.156E-02 0.000E+00
                                         8.183E+00 0.000E+00 3.266E-01 0.000E+00
                                         3.624E+00 0.000E+00 5.774E-01 0.000E+00
                                         1.634E+00 0.000E+00 3.430E-01 0.000E+00
                          53-    55 P  
                                         1.084E+00 0.000E+00 1.000E+00 0.000E+00
                          56-    58 P  
                                         4.997E-01 0.000E+00 1.000E+00 0.000E+00
                          59-    61 P  
                                         1.500E-01 0.000E+00 1.000E+00 0.000E+00
                          62-    66 D  
                                         1.518E+02 0.000E+00 0.000E+00 9.397E-03
                                         4.484E+01 0.000E+00 0.000E+00 6.409E-02
                                         1.633E+01 0.000E+00 0.000E+00 2.183E-01
                                         6.431E+00 0.000E+00 0.000E+00 4.031E-01
                                         2.505E+00 0.000E+00 0.000E+00 4.197E-01
                          67-    71 D  
                                         1.103E+00 0.000E+00 0.000E+00 1.000E+00
                          72-    76 D  
                                         4.307E-01 0.000E+00 0.000E+00 1.000E+00
                          77-    81 D  
                                         2.154E-01 0.000E+00 0.000E+00 1.000E+00
 INFORMATION **** SET_MPP **** PCRYSTAL CALCULATION
 INFORMATION **** READM2 **** NEW DEFAULT: FOCK/KS MATRIX MIXING SET TO 30 %
 INFORMATION **** READM2 **** NEW DEFAULT: FULL DIRECT SCF MODE
 INFORMATION **** READM2 **** NEW DEFAULT: COULOMB BIPOLAR BUFFER SET TO 32 Mb
 INFORMATION **** READM2 **** NEW DEFAULT: EXCHANGE BIPOLAR BUFFER SET TO 32 Mb

 *******************************************************************************
 NEW DEFAULT: DFT INTEGRATION GRID INCREASED TO XLGRID
 NEW DEFAULT: DIIS ACCELERATOR ACTIVE
 USE KEYWORD NODIIS TO TURN IT OFF
 *******************************************************************************

 INFORMATION **** RDDFTP **** MAX N. OF POINTS ALLOWED IN A BATCH FOR NUMERICAL INTEGRATION         200
 INFORMATION **** TOLINTEG **** COULOMB AND EXCHANGE SERIES TOLERANCES MODIFIED
 INFORMATION **** TOLDEE **** SCF TOL ON TOTAL ENERGY SET TO          11
 INFORMATION **** EXCHSIZE **** EXCHANGE BIPOLAR BUFFER SIZE SET TO    12012489
 INFORMATION **** MAXCYCLE **** MAX NUMBER OF SCF CYCLES SET TO         150
 *******************************************************************************
 N. OF ATOMS PER CELL         2  COULOMB OVERLAP TOL         (T1) 10**   -7
 NUMBER OF SHELLS            29  COULOMB PENETRATION TOL     (T2) 10**   -7
 NUMBER OF AO                81  EXCHANGE OVERLAP TOL        (T3) 10**   -7
 N. OF ELECTRONS PER CELL    64  EXCHANGE PSEUDO OVP (F(G))  (T4) 10**   -9
 CORE ELECTRONS PER CELL     46  EXCHANGE PSEUDO OVP (P(G))  (T5) 10**  -30
 N. OF SYMMETRY OPERATORS    24  POLE ORDER IN MONO ZONE                  4
 *******************************************************************************
 TYPE OF CALCULATION :  RESTRICTED CLOSED SHELL
 KOHN-SHAM HAMILTONIAN

 (EXCHANGE)[CORRELATION] FUNCTIONAL:(PERDEW-BURKE-ERNZERHOF)[PERDEW-BURKE-ERNZERHOF]


 HYBRID EXCHANGE - PERCENTAGE OF FOCK EXCHANGE    25.0000

 CAPPA:IS1  8;IS2  8;IS3  8; K PTS MONK NET  29; SYMMOPS:K SPACE  48;G SPACE  24

 *******************************************************************************
 MAX NUMBER OF SCF CYCLES     150  CONVERGENCE ON DELTAP        10**-21
 WEIGHT OF F(I) IN F(I+1)      30% CONVERGENCE ON ENERGY        10**-11
 SHRINK. FACT.(MONKH.)    8  8  8  NUMBER OF K POINTS IN THE IBZ     29
 SHRINKING FACTOR(GILAT NET)    8  NUMBER OF K POINTS(GILAT NET)     29
 *******************************************************************************
 *** K POINTS COORDINATES (OBLIQUE COORDINATES IN UNITS OF IS =  8)
   1-R(  0  0  0)   2-C(  1  0  0)   3-C(  2  0  0)   4-C(  3  0  0)
   5-R(  4  0  0)   6-C(  1  1  0)   7-C(  2  1  0)   8-C(  3  1  0)
   9-C(  4  1  0)  10-C(  5  1  0)  11-C(  6  1  0)  12-C(  7  1  0)
  13-C(  2  2  0)  14-C(  3  2  0)  15-C(  4  2  0)  16-C(  5  2  0)
  17-C(  6  2  0)  18-C(  3  3  0)  19-C(  4  3  0)  20-C(  5  3  0)
  21-R(  4  4  0)  22-C(  3  2  1)  23-C(  4  2  1)  24-C(  5  2  1)
  25-C(  4  3  1)  26-C(  5  3  1)  27-C(  6  3  1)  28-C(  5  4  1)
  29-C(  6  4  2)

 DIRECT LATTICE VECTORS COMPON. (A.U.)     RECIP. LATTICE VECTORS COMPON. (A.U.) 
        X            Y            Z              X            Y            Z
    0.0000000    5.3611530    5.3611530     -0.5859920    0.5859920    0.5859920
    5.3611530    0.0000000    5.3611530      0.5859920   -0.5859920    0.5859920
    5.3611530    5.3611530    0.0000000      0.5859920    0.5859920   -0.5859920

 DISK SPACE FOR EIGENVECTORS (FTN 10)      360855 REALS

 SYMMETRY ADAPTION OF THE BLOCH FUNCTIONS ENABLED
 TTTTTTTTTTTTTTTTTTTTTTTTTTTTTT gordsh1     TELAPSE        4.62 TCPU        2.22

 MATRIX SIZE: P(G)  366503, F(G)   31041, P(G) IRR   18097, F(G) IRR    5358
 MAX G-VECTOR INDEX FOR 1- AND 2-ELECTRON INTEGRALS 477

 TTTTTTTTTTTTTTTTTTTTTTTTTTTTTT INPUT       TELAPSE        4.62 TCPU        2.23

 NEIGHBORS OF THE NON-EQUIVALENT ATOMS

 N = NUMBER OF NEIGHBORS AT DISTANCE R
    ATOM  N     R/ANG      R/AU   NEIGHBORS (ATOM LABELS AND CELL INDICES)
   1 ZN   4     2.4569     4.6429    2 SE   0 0 0    2 SE   1 0 0    2 SE   1 0-1
                                     2 SE   1-1 0
   1 ZN  12     4.0121     7.5818    1 ZN  -1 0 0    1 ZN   1 0 0    1 ZN  -1 0 1
                                     1 ZN   1 0-1    1 ZN  -1 1 0    1 ZN   1-1 0
                                     1 ZN   0-1 0    1 ZN   0 1 0    1 ZN   0-1 1
                                     1 ZN   0 1-1    1 ZN   0 0-1    1 ZN   0 0 1
   1 ZN  12     4.7046     8.8905    2 SE   0 1 0    2 SE   0-1 0    2 SE   0 1-1
                                     2 SE   0-1 1    2 SE   0 0 1    2 SE   0 0-1
                                     2 SE   1 1-1    2 SE   1-1 1    2 SE   1-1-1
                                     2 SE   2 0-1    2 SE   2-1 0    2 SE   2-1-1
   1 ZN   6     5.6740    10.7223    1 ZN  -1-1 1    1 ZN   1 1-1    1 ZN  -1 1-1
                                     1 ZN   1-1 1    1 ZN  -1 1 1    1 ZN   1-1-1
   1 ZN  12     6.1831    11.6844    2 SE  -1 0 0    2 SE  -1 0 1    2 SE  -1 1 0
                                     2 SE   1 1 0    2 SE   1 1-2    2 SE   1 0 1
                                     2 SE   1 0-2    2 SE   1-2 1    2 SE   1-2 0
                                     2 SE   2 0 0    2 SE   2 0-2    2 SE   2-2 0
   1 ZN  24     6.9492    13.1321    1 ZN  -2 0 1    1 ZN   2 0-1    1 ZN  -2 1 0
                                     1 ZN   2-1 0    1 ZN  -2 1 1    1 ZN   2-1-1
                                     1 ZN  -1-1 0    1 ZN   1 1 0    1 ZN  -1-1 2
                                     1 ZN   1 1-2    1 ZN  -1 0-1    1 ZN   1 0 1
                                     1 ZN  -1 0 2    1 ZN   1 0-2    1 ZN  -1 2-1
                                     1 ZN   1-2 1    1 ZN  -1 2 0    1 ZN   1-2 0
                                     1 ZN   0-2 1    1 ZN   0 2-1    1 ZN   0-1-1
                                     1 ZN   0 1 1    1 ZN   0-1 2    1 ZN   0 1-2

   2 SE   4     2.4569     4.6429    1 ZN   0 0 0    1 ZN  -1 0 0    1 ZN  -1 0 1
                                     1 ZN  -1 1 0
   2 SE  12     4.0121     7.5818    2 SE  -1 0 0    2 SE   1 0 0    2 SE  -1 0 1
                                     2 SE   1 0-1    2 SE  -1 1 0    2 SE   1-1 0
                                     2 SE   0-1 0    2 SE   0 1 0    2 SE   0-1 1
                                     2 SE   0 1-1    2 SE   0 0-1    2 SE   0 0 1
   2 SE  12     4.7046     8.8905    1 ZN   0-1 0    1 ZN   0 1 0    1 ZN   0-1 1
                                     1 ZN   0 1-1    1 ZN   0 0-1    1 ZN   0 0 1
                                     1 ZN  -1-1 1    1 ZN  -1 1-1    1 ZN  -1 1 1
                                     1 ZN  -2 0 1    1 ZN  -2 1 0    1 ZN  -2 1 1
   2 SE   6     5.6740    10.7223    2 SE  -1-1 1    2 SE   1 1-1    2 SE  -1 1-1
                                     2 SE   1-1 1    2 SE  -1 1 1    2 SE   1-1-1
   2 SE  12     6.1831    11.6844    1 ZN   1 0 0    1 ZN   1 0-1    1 ZN   1-1 0
                                     1 ZN  -1-1 0    1 ZN  -1-1 2    1 ZN  -1 0-1
                                     1 ZN  -1 0 2    1 ZN  -1 2-1    1 ZN  -1 2 0
                                     1 ZN  -2 0 0    1 ZN  -2 0 2    1 ZN  -2 2 0
   2 SE  24     6.9492    13.1321    2 SE  -2 0 1    2 SE   2 0-1    2 SE  -2 1 0
                                     2 SE   2-1 0    2 SE  -2 1 1    2 SE   2-1-1
                                     2 SE  -1-1 0    2 SE   1 1 0    2 SE  -1-1 2
                                     2 SE   1 1-2    2 SE  -1 0-1    2 SE   1 0 1
                                     2 SE  -1 0 2    2 SE   1 0-2    2 SE  -1 2-1
                                     2 SE   1-2 1    2 SE  -1 2 0    2 SE   1-2 0
                                     2 SE   0-2 1    2 SE   0 2-1    2 SE   0-1-1
                                     2 SE   0 1 1    2 SE   0-1 2    2 SE   0 1-2


 SYMMETRY ALLOWED ELASTIC DISTORTION 1
  0.5773503  0.0000000  0.0000000
  0.0000000  0.5773503  0.0000000
  0.0000000  0.0000000  0.5773503

 THERE ARE NO SYMMETRY ALLOWED DIRECTIONS
 WARNING **** INT_SCREEN **** NO DEGREES OF FREEDOM TO OPTIMIZE.
 CONTINUING WITH FREQUENCIES CALCULATION

 WARNING **** INT_SCREEN **** CELL PARAMETERS OPTIMIZATION ONLY
 TTTTTTTTTTTTTTTTTTTTTTTTTTTTTT SYMM        TELAPSE        4.64 TCPU        2.25
 TTTTTTTTTTTTTTTTTTTTTTTTTTTTTT INT_SCREEN  TELAPSE        4.64 TCPU        2.25

 *******************************************************************************
 *                             OPTIMIZATION STARTS                             *
 *******************************************************************************
 RECLASIFICATION OF INDICES FOR INTEGRAL CALC ACCORDING TO DIFFERENT CRITERIA:
           FIXDELTE                  FIXDELTX              FIXDELTN
          0.10000000E-01           0.80000000                 10
 *******************************************************************************

 *******************************************************************************
 CELL OPTIMIZATION - POINT    1

 DFT PARAMETERS

     ATOM       ELECTRONS   NET CHARGE   R(ANGSTROM)
   1  30  ZN     30.0000      0.0000     1.37000000
   2  34  SE     34.0000      0.0000     1.17000000

 SIZE OF GRID=       5689
 TTTTTTTTTTTTTTTTTTTTTTTTTTTTTT MAKE_GRID2  TELAPSE        4.95 TCPU        2.53
 BECKE WEIGHT FUNCTION
 RADSAFE =     2.00
 TOLERANCES - DENSITY:10**- 6; POTENTIAL:10**- 9; GRID WGT:10**-14

 RADIAL INTEGRATION  - INTERVALS (POINTS,UPPER LIMIT):            1( 99,  4.0*R)

 ANGULAR INTEGRATION - INTERVALS (ACCURACY LEVEL [N. POINTS] UPPER LIMIT):
  1(  6[ 146]   0.2)  2( 11[ 302]   0.5)  3( 14[ 590]   0.9)  4( 18[1454]   3.5)
  5( 14[ 590]9999.0)
 TTTTTTTTTTTTTTTTTTTTTTTTTTTTTT INT_CALC    TELAPSE        4.97 TCPU        2.55

 *******************************************************************************
 ICSD_CollCode77091.cif                                                          
 CRYSTAL - SCF - TYPE OF CALCULATION :  RESTRICTED CLOSED SHELL
 *******************************************************************************

 CAPPA:IS1  8;IS2  8;IS3  8; K PTS MONK NET  29; SYMMOPS:K SPACE  48;G SPACE  24

 TTTTTTTTTTTTTTTTTTTTTTTTTTTTTT SDIK        TELAPSE        5.01 TCPU        2.59

 AAAAAAAAAAAAAAAAAAAAAAAAAAAAAAAAAAAAAAAAAAAAAAAAAAAAAAAAAAAAAAAAAAAAAAAAAAAAAAA
         ATOMIC WAVEFUNCTION(S)


 NUCLEAR CHARGE 30.0  SYMMETRY SPECIES            S    P    D
 N. ELECTRONS   30.0  NUMBER OF PRIMITIVE GTOS   17   11    6
                      NUMBER OF CONTRACTED GTOS   6    4    3
                      NUMBER OF CLOSED SHELLS     4    2    1
                      OPEN SHELL OCCUPATION       0    0    0

  ZNUC  SCFIT    TOTAL HF ENERGY   KINETIC ENERGY   VIRIAL THEOREM             ACCURACY
  30.0    18    -1.777712574E+03  1.776653869E+03 -2.000595898E+00  2.8E-06

 NUCLEAR CHARGE 34.0  SYMMETRY SPECIES            S    P    D
 N. ELECTRONS   34.0  NUMBER OF PRIMITIVE GTOS   17   13    8
                      NUMBER OF CONTRACTED GTOS   6    5    4
                      NUMBER OF CLOSED SHELLS     4    2    1
                      OPEN SHELL OCCUPATION       0    4    0

  ZNUC  SCFIT    TOTAL HF ENERGY   KINETIC ENERGY   VIRIAL THEOREM             ACCURACY
  34.0    12    -2.399794034E+03  2.399314896E+03 -2.000199698E+00  3.5E-06

 AAAAAAAAAAAAAAAAAAAAAAAAAAAAAAAAAAAAAAAAAAAAAAAAAAAAAAAAAAAAAAAAAAAAAAAAAAAAAAA

 TTTTTTTTTTTTTTTTTTTTTTTTTTTTTT MOQGAD      TELAPSE        5.08 TCPU        2.66
 TTTTTTTTTTTTTTTTTTTTTTTTTTTTTT SHELLXN     TELAPSE        5.69 TCPU        3.26
 TTTTTTTTTTTTTTTTTTTTTTTTTTTTTT MONMO3      TELAPSE        5.69 TCPU        3.26
 NUMERICALLY INTEGRATED DENSITY     64.0000100772
 TTTTTTTTTTTTTTTTTTTTTTTTTTTTTT NUMDFT      TELAPSE        5.75 TCPU        3.32
 CYC   0 ETOT(AU) -4.180734283315E+03 DETOT -4.18E+03 tst  0.00E+00 PX  1.00E+00
 TTTTTTTTTTTTTTTTTTTTTTTTTTTTTT DIIS        TELAPSE        5.75 TCPU        3.32
 TTTTTTTTTTTTTTTTTTTTTTTTTTTTTT FDIK        TELAPSE        5.76 TCPU        3.33
 INSULATING STATE
 TOP OF VALENCE BANDS -    BAND     32; K    1; EIG -1.9984612E-01 AU
 BOTTOM OF VIRTUAL BANDS - BAND     33; K    1; EIG -7.8205505E-02 AU
 DIRECT ENERGY BAND GAP:   3.3100 eV
 TTTTTTTTTTTTTTTTTTTTTTTTTTTTTT PDIG        TELAPSE        5.78 TCPU        3.34
 TTTTTTTTTTTTTTTTTTTTTTTTTTTTTT MOQGAD      TELAPSE        5.78 TCPU        3.35
 TTTTTTTTTTTTTTTTTTTTTTTTTTTTTT SHELLXN     TELAPSE        6.40 TCPU        3.96
 TTTTTTTTTTTTTTTTTTTTTTTTTTTTTT MONMO3      TELAPSE        6.40 TCPU        3.96
 NUMERICALLY INTEGRATED DENSITY     64.0000119961
 TTTTTTTTTTTTTTTTTTTTTTTTTTTTTT NUMDFT      TELAPSE        6.46 TCPU        4.02
 CYC   1 ETOT(AU) -4.180447182357E+03 DETOT  2.87E-01 tst  0.00E+00 PX  1.00E+00
 TTTTTTTTTTTTTTTTTTTTTTTTTTTTTT DIIS        TELAPSE        6.46 TCPU        4.02
 DIIS TEST: 0.62264E+00 AT SCF   CYCLE   1 - MIX   30 %
 TTTTTTTTTTTTTTTTTTTTTTTTTTTTTT FDIK        TELAPSE        6.47 TCPU        4.03
 INSULATING STATE
 TOP OF VALENCE BANDS -    BAND     32; K    1; EIG -2.1115504E-01 AU
 BOTTOM OF VIRTUAL BANDS - BAND     33; K    1; EIG -7.4219268E-02 AU
 DIRECT ENERGY BAND GAP:   3.7262 eV
 TTTTTTTTTTTTTTTTTTTTTTTTTTTTTT PDIG        TELAPSE        6.48 TCPU        4.04
 TTTTTTTTTTTTTTTTTTTTTTTTTTTTTT MOQGAD      TELAPSE        6.49 TCPU        4.04
 TTTTTTTTTTTTTTTTTTTTTTTTTTTTTT SHELLXN     TELAPSE        7.10 TCPU        4.66
 TTTTTTTTTTTTTTTTTTTTTTTTTTTTTT MONMO3      TELAPSE        7.10 TCPU        4.66
 NUMERICALLY INTEGRATED DENSITY     64.0000120253
 TTTTTTTTTTTTTTTTTTTTTTTTTTTTTT NUMDFT      TELAPSE        7.16 TCPU        4.72
 CYC   2 ETOT(AU) -4.180450581770E+03 DETOT -3.40E-03 tst  2.81E-03 PX  1.37E-01
 TTTTTTTTTTTTTTTTTTTTTTTTTTTTTT DIIS        TELAPSE        7.16 TCPU        4.72
 DIIS TEST: 0.73873E+00 AT SCF   CYCLE   2 - DIIS ACTIVE - HISTORY:     2 CYCLES
 TTTTTTTTTTTTTTTTTTTTTTTTTTTTTT FDIK        TELAPSE        7.21 TCPU        4.77
 INSULATING STATE
 TOP OF VALENCE BANDS -    BAND     32; K    1; EIG -2.1623340E-01 AU
 BOTTOM OF VIRTUAL BANDS - BAND     33; K    1; EIG -6.4364630E-02 AU
 DIRECT ENERGY BAND GAP:   4.1326 eV
 TTTTTTTTTTTTTTTTTTTTTTTTTTTTTT PDIG        TELAPSE        7.23 TCPU        4.78
 TTTTTTTTTTTTTTTTTTTTTTTTTTTTTT MOQGAD      TELAPSE        7.23 TCPU        4.79
 TTTTTTTTTTTTTTTTTTTTTTTTTTTTTT SHELLXN     TELAPSE        7.85 TCPU        5.40
 TTTTTTTTTTTTTTTTTTTTTTTTTTTTTT MONMO3      TELAPSE        7.85 TCPU        5.40
 NUMERICALLY INTEGRATED DENSITY     64.0000121362
 TTTTTTTTTTTTTTTTTTTTTTTTTTTTTT NUMDFT      TELAPSE        7.91 TCPU        5.46
 CYC   3 ETOT(AU) -4.180487263265E+03 DETOT -3.67E-02 tst  6.60E-04 PX  3.91E-02
 TTTTTTTTTTTTTTTTTTTTTTTTTTTTTT DIIS        TELAPSE        7.91 TCPU        5.46
 DIIS TEST: 0.23702E-02 AT SCF   CYCLE   3 - DIIS ACTIVE - HISTORY:     3 CYCLES
 TTTTTTTTTTTTTTTTTTTTTTTTTTTTTT FDIK        TELAPSE        7.92 TCPU        5.46
 INSULATING STATE
 TOP OF VALENCE BANDS -    BAND     32; K    1; EIG -2.2582257E-01 AU
 BOTTOM OF VIRTUAL BANDS - BAND     33; K    1; EIG -6.7046538E-02 AU
 DIRECT ENERGY BAND GAP:   4.3205 eV
 TTTTTTTTTTTTTTTTTTTTTTTTTTTTTT PDIG        TELAPSE        7.93 TCPU        5.48
 TTTTTTTTTTTTTTTTTTTTTTTTTTTTTT MOQGAD      TELAPSE        7.94 TCPU        5.48
 TTTTTTTTTTTTTTTTTTTTTTTTTTTTTT SHELLXN     TELAPSE        8.55 TCPU        6.09
 TTTTTTTTTTTTTTTTTTTTTTTTTTTTTT MONMO3      TELAPSE        8.56 TCPU        6.09
 NUMERICALLY INTEGRATED DENSITY     64.0000120638
 TTTTTTTTTTTTTTTTTTTTTTTTTTTTTT NUMDFT      TELAPSE        8.61 TCPU        6.15
 CYC   4 ETOT(AU) -4.180487773188E+03 DETOT -5.10E-04 tst  7.14E-05 PX  2.76E-02
 TTTTTTTTTTTTTTTTTTTTTTTTTTTTTT DIIS        TELAPSE        8.62 TCPU        6.15
 DIIS TEST: 0.40673E-03 AT SCF   CYCLE   4 - DIIS ACTIVE - HISTORY:     4 CYCLES
 TTTTTTTTTTTTTTTTTTTTTTTTTTTTTT FDIK        TELAPSE        8.62 TCPU        6.16
 INSULATING STATE
 TOP OF VALENCE BANDS -    BAND     32; K    1; EIG -2.2405572E-01 AU
 BOTTOM OF VIRTUAL BANDS - BAND     33; K    1; EIG -6.5453604E-02 AU
 DIRECT ENERGY BAND GAP:   4.3158 eV
 TTTTTTTTTTTTTTTTTTTTTTTTTTTTTT PDIG        TELAPSE        8.64 TCPU        6.17
 TTTTTTTTTTTTTTTTTTTTTTTTTTTTTT MOQGAD      TELAPSE        8.64 TCPU        6.17
 TTTTTTTTTTTTTTTTTTTTTTTTTTTTTT SHELLXN     TELAPSE        9.26 TCPU        6.79
 TTTTTTTTTTTTTTTTTTTTTTTTTTTTTT MONMO3      TELAPSE        9.26 TCPU        6.79
 NUMERICALLY INTEGRATED DENSITY     64.0000120977
 TTTTTTTTTTTTTTTTTTTTTTTTTTTTTT NUMDFT      TELAPSE        9.32 TCPU        6.85
 CYC   5 ETOT(AU) -4.180487813566E+03 DETOT -4.04E-05 tst  1.58E-06 PX  7.23E-03
 TTTTTTTTTTTTTTTTTTTTTTTTTTTTTT DIIS        TELAPSE        9.32 TCPU        6.85
 DIIS TEST: 0.43659E-04 AT SCF   CYCLE   5 - DIIS ACTIVE - HISTORY:     5 CYCLES
 TTTTTTTTTTTTTTTTTTTTTTTTTTTTTT FDIK        TELAPSE        9.32 TCPU        6.85
 INSULATING STATE
 TOP OF VALENCE BANDS -    BAND     32; K    1; EIG -2.2409906E-01 AU
 BOTTOM OF VIRTUAL BANDS - BAND     33; K    1; EIG -6.5264870E-02 AU
 DIRECT ENERGY BAND GAP:   4.3221 eV
 TTTTTTTTTTTTTTTTTTTTTTTTTTTTTT PDIG        TELAPSE        9.34 TCPU        6.87
 TTTTTTTTTTTTTTTTTTTTTTTTTTTTTT MOQGAD      TELAPSE        9.34 TCPU        6.87
 TTTTTTTTTTTTTTTTTTTTTTTTTTTTTT SHELLXN     TELAPSE        9.96 TCPU        7.48
 TTTTTTTTTTTTTTTTTTTTTTTTTTTTTT MONMO3      TELAPSE        9.96 TCPU        7.48
 NUMERICALLY INTEGRATED DENSITY     64.0000120996
 TTTTTTTTTTTTTTTTTTTTTTTTTTTTTT NUMDFT      TELAPSE       10.02 TCPU        7.54
 CYC   6 ETOT(AU) -4.180487815770E+03 DETOT -2.20E-06 tst  4.41E-08 PX  8.18E-04
 TTTTTTTTTTTTTTTTTTTTTTTTTTTTTT DIIS        TELAPSE       10.02 TCPU        7.54
 DIIS TEST: 0.36861E-06 AT SCF   CYCLE   6 - DIIS ACTIVE - HISTORY:     6 CYCLES
 TTTTTTTTTTTTTTTTTTTTTTTTTTTTTT FDIK        TELAPSE       10.04 TCPU        7.56
 INSULATING STATE
 TOP OF VALENCE BANDS -    BAND     32; K    1; EIG -2.2417275E-01 AU
 BOTTOM OF VIRTUAL BANDS - BAND     33; K    1; EIG -6.5309388E-02 AU
 DIRECT ENERGY BAND GAP:   4.3229 eV
 TTTTTTTTTTTTTTTTTTTTTTTTTTTTTT PDIG        TELAPSE       10.06 TCPU        7.57
 TTTTTTTTTTTTTTTTTTTTTTTTTTTTTT MOQGAD      TELAPSE       10.06 TCPU        7.57
 TTTTTTTTTTTTTTTTTTTTTTTTTTTTTT SHELLXN     TELAPSE       10.68 TCPU        8.19
 TTTTTTTTTTTTTTTTTTTTTTTTTTTTTT MONMO3      TELAPSE       10.68 TCPU        8.19
 NUMERICALLY INTEGRATED DENSITY     64.0000120989
 TTTTTTTTTTTTTTTTTTTTTTTTTTTTTT NUMDFT      TELAPSE       10.74 TCPU        8.24
 CYC   7 ETOT(AU) -4.180487815793E+03 DETOT -2.37E-08 tst  2.05E-09 PX  1.31E-04
 TTTTTTTTTTTTTTTTTTTTTTTTTTTTTT DIIS        TELAPSE       10.74 TCPU        8.25
 DIIS TEST: 0.70235E-08 AT SCF   CYCLE   7 - DIIS ACTIVE - HISTORY:     7 CYCLES
 TTTTTTTTTTTTTTTTTTTTTTTTTTTTTT FDIK        TELAPSE       10.74 TCPU        8.25
 INSULATING STATE
 TOP OF VALENCE BANDS -    BAND     32; K    1; EIG -2.2416377E-01 AU
 BOTTOM OF VIRTUAL BANDS - BAND     33; K    1; EIG -6.5301343E-02 AU
 DIRECT ENERGY BAND GAP:   4.3229 eV
 TTTTTTTTTTTTTTTTTTTTTTTTTTTTTT PDIG        TELAPSE       10.76 TCPU        8.27
 TTTTTTTTTTTTTTTTTTTTTTTTTTTTTT MOQGAD      TELAPSE       10.76 TCPU        8.27
 TTTTTTTTTTTTTTTTTTTTTTTTTTTTTT SHELLXN     TELAPSE       11.38 TCPU        8.88
 TTTTTTTTTTTTTTTTTTTTTTTTTTTTTT MONMO3      TELAPSE       11.38 TCPU        8.88
 NUMERICALLY INTEGRATED DENSITY     64.0000120991
 TTTTTTTTTTTTTTTTTTTTTTTTTTTTTT NUMDFT      TELAPSE       11.44 TCPU        8.94
 CYC   8 ETOT(AU) -4.180487815782E+03 DETOT  1.12E-08 tst  2.45E-11 PX  2.33E-05
 TTTTTTTTTTTTTTTTTTTTTTTTTTTTTT DIIS        TELAPSE       11.44 TCPU        8.94
 DIIS TEST: 0.35280E-11 AT SCF   CYCLE   8 - DIIS ACTIVE - HISTORY:     8 CYCLES
 TTTTTTTTTTTTTTTTTTTTTTTTTTTTTT FDIK        TELAPSE       11.45 TCPU        8.94
 INSULATING STATE
 TOP OF VALENCE BANDS -    BAND     32; K    1; EIG -2.2416381E-01 AU
 BOTTOM OF VIRTUAL BANDS - BAND     33; K    1; EIG -6.5301530E-02 AU
 DIRECT ENERGY BAND GAP:   4.3229 eV
 TTTTTTTTTTTTTTTTTTTTTTTTTTTTTT PDIG        TELAPSE       11.46 TCPU        8.96
 TTTTTTTTTTTTTTTTTTTTTTTTTTTTTT MOQGAD      TELAPSE       11.46 TCPU        8.96
 TTTTTTTTTTTTTTTTTTTTTTTTTTTTTT SHELLXN     TELAPSE       12.08 TCPU        9.57
 TTTTTTTTTTTTTTTTTTTTTTTTTTTTTT MONMO3      TELAPSE       12.08 TCPU        9.57
 NUMERICALLY INTEGRATED DENSITY     64.0000120991
 TTTTTTTTTTTTTTTTTTTTTTTTTTTTTT NUMDFT      TELAPSE       12.14 TCPU        9.63
 CYC   9 ETOT(AU) -4.180487815783E+03 DETOT -4.91E-10 tst  6.28E-14 PX  8.38E-07
 TTTTTTTTTTTTTTTTTTTTTTTTTTTTTT DIIS        TELAPSE       12.14 TCPU        9.63
 DIIS TEST: 0.48696E-14 AT SCF   CYCLE   9 - DIIS ACTIVE - HISTORY:     9 CYCLES
 TTTTTTTTTTTTTTTTTTTTTTTTTTTTTT FDIK        TELAPSE       12.15 TCPU        9.64
 INSULATING STATE
 TOP OF VALENCE BANDS -    BAND     32; K    1; EIG -2.2416380E-01 AU
 BOTTOM OF VIRTUAL BANDS - BAND     33; K    1; EIG -6.5301523E-02 AU
 DIRECT ENERGY BAND GAP:   4.3229 eV
 TTTTTTTTTTTTTTTTTTTTTTTTTTTTTT PDIG        TELAPSE       12.17 TCPU        9.65
 TTTTTTTTTTTTTTTTTTTTTTTTTTTTTT MOQGAD      TELAPSE       12.17 TCPU        9.66
 TTTTTTTTTTTTTTTTTTTTTTTTTTTTTT SHELLXN     TELAPSE       12.79 TCPU       10.27
 TTTTTTTTTTTTTTTTTTTTTTTTTTTTTT MONMO3      TELAPSE       12.79 TCPU       10.27
 NUMERICALLY INTEGRATED DENSITY     64.0000120991
 TTTTTTTTTTTTTTTTTTTTTTTTTTTTTT NUMDFT      TELAPSE       12.84 TCPU       10.33
 CYC  10 ETOT(AU) -4.180487815783E+03 DETOT  2.00E-11 tst  9.44E-17 PX  3.31E-08
 TTTTTTTTTTTTTTTTTTTTTTTTTTTTTT DIIS        TELAPSE       12.85 TCPU       10.33
 DIIS TEST: 0.24755E-15 AT SCF   CYCLE  10 - DIIS ACTIVE - HISTORY:    10 CYCLES
 TTTTTTTTTTTTTTTTTTTTTTTTTTTTTT FDIK        TELAPSE       12.85 TCPU       10.33
 INSULATING STATE
 TOP OF VALENCE BANDS -    BAND     32; K    1; EIG -2.2416380E-01 AU
 BOTTOM OF VIRTUAL BANDS - BAND     33; K    1; EIG -6.5301523E-02 AU
 DIRECT ENERGY BAND GAP:   4.3229 eV
 TTTTTTTTTTTTTTTTTTTTTTTTTTTTTT PDIG        TELAPSE       12.87 TCPU       10.35
 TTTTTTTTTTTTTTTTTTTTTTTTTTTTTT MOQGAD      TELAPSE       12.87 TCPU       10.35
 TTTTTTTTTTTTTTTTTTTTTTTTTTTTTT SHELLXN     TELAPSE       13.49 TCPU       10.96
 TTTTTTTTTTTTTTTTTTTTTTTTTTTTTT MONMO3      TELAPSE       13.49 TCPU       10.96
 NUMERICALLY INTEGRATED DENSITY     64.0000120991
 TTTTTTTTTTTTTTTTTTTTTTTTTTTTTT NUMDFT      TELAPSE       13.55 TCPU       11.02
 CYC  11 ETOT(AU) -4.180487815783E+03 DETOT -2.73E-12 tst  2.84E-19 PX  1.54E-09
 TTTTTTTTTTTTTTTTTTTTTTTTTTTTTT DIIS        TELAPSE       13.56 TCPU       11.03
 DIIS TEST: 0.12302E-19 AT SCF   CYCLE  11 - DIIS ACTIVE - HISTORY:    11 CYCLES
 TTTTTTTTTTTTTTTTTTTTTTTTTTTTTT FDIK        TELAPSE       13.56 TCPU       11.03
 INSULATING STATE
 TOP OF VALENCE BANDS -    BAND     32; K    1; EIG -2.2416380E-01 AU
 BOTTOM OF VIRTUAL BANDS - BAND     33; K    1; EIG -6.5301523E-02 AU
 DIRECT ENERGY BAND GAP:   4.3229 eV
 TTTTTTTTTTTTTTTTTTTTTTTTTTTTTT PDIG        TELAPSE       13.58 TCPU       11.05
 TTTTTTTTTTTTTTTTTTTTTTTTTTTTTT MOQGAD      TELAPSE       13.58 TCPU       11.05
 TTTTTTTTTTTTTTTTTTTTTTTTTTTTTT SHELLXN     TELAPSE       14.20 TCPU       11.67
 ::: PSEUDO TOTAL   ENERGY                        -4.0613434196921E+03
 ::: VIRIAL COEFFICIENT                            1.0136480240013E+00
 TTTTTTTTTTTTTTTTTTTTTTTTTTTTTT MONMO3      TELAPSE       14.20 TCPU       11.67
 NUMERICALLY INTEGRATED DENSITY     64.0000120991
 EXCHANGE ENERGY: -0.116015135470E+03  CORRELATION ENERGY: -0.312926062008E+01
 TTTTTTTTTTTTTTTTTTTTTTTTTTTTTT NUMDFT      TELAPSE       14.26 TCPU       11.73
 CYC  12 ETOT(AU) -4.180487815783E+03 DETOT -2.73E-12 tst  1.25E-21 PX  1.54E-09

 == SCF ENDED - CONVERGENCE ON ENERGY      E(AU) -4.1804878157825E+03 CYCLES  12


 ENERGY EXPRESSION=HARTREE+FOCK EXCH*0.25000+(PBE        EXCH)*0.75000+PBE        CORR


 TOTAL ENERGY(DFT)(AU)( 12) -4.1804878157825E+03 DE-2.7E-12 tester 1.2E-21
 TTTTTTTTTTTTTTTTTTTTTTTTTTTTTT EDFT        TELAPSE       14.26 TCPU       11.73

 *******************************************************************************
 *                             FORCE CALCULATION                               *
 *******************************************************************************

 TTTTTTTTTTTTTTTTTTTTTTTTTTTTTT NUMDFG      TELAPSE       14.43 TCPU       11.89
 INFORMATION **** EXCPOG **** EXCH. BIPO BUFFER LENGTH (WORDS) =     1791828
 INFORMATION **** GENPOG **** BIPO BUFFER LENGTH (WORDS) =      274400
 TTTTTTTTTTTTTTTTTTTTTTTTTTTTTT SHELXG      TELAPSE       18.50 TCPU       15.94

 CARTESIAN FORCES IN HARTREE/BOHR (ANALYTICAL)
   ATOM                     X                   Y                   Z
   1  30            -5.324453573055E-15  2.690170033412E-15  2.951781141707E-15
   2  34             5.324453573055E-15 -2.690170033412E-15 -2.951781141707E-15

 RESULTANT FORCE     0.000000000000E+00  0.000000000000E+00  0.000000000000E+00

 ATOMIC PART

 THERE ARE NO SYMMETRY ALLOWED DIRECTIONS

 CELL PART

 GRADIENT WITH RESPECT TO THE CELL PARAMETER IN HARTREE/BOHR
ORDER: -D/DA1X, -D/DA1Y, -D/DA1Z
       -D/DA2X, -D/DA2Y, -D/DA2Z
       -D/DA3X, -D/DA3Y, -D/DA3Z
 -0.165910222366E-03  0.165910222362E-03  0.165910222362E-03
  0.165910222366E-03 -0.165910222357E-03  0.165910222357E-03
  0.165910222360E-03  0.165910222354E-03 -0.165910222360E-03

STRESS TENSOR, IN HARTREE/BOHR^3:
ORDER: 11 12 13
       21 22 23
       31 32 33
 -0.577240421912E-05  0.103005955355E-15 -0.105541930504E-21
  0.618036111779E-16 -0.577240421895E-05 -0.824044842555E-16
  0.412022386351E-16 -0.412020918370E-16 -0.577240421901E-05

PRESSURE FROM THE STRESS TENSOR,
IN HARTREE/BOHR^3:  0.57724E-05
PRESSURE IN GIGAPASCAL:  0.1698E+00
CONVERSION FACTOR: 1 HARTREE/BOHR^3= 29421 GIGAPASCAL
WHEN USING VALUES FOR BOHR RADIUS AND HARTREE
FROM IUPAC WEBSITE, APRIL 2009
ENTHALPY: -4.1804860368423E+03

 SYMMETRY ALLOWED FORCES (ANALYTICAL) (DIRECTION, FORCE)

    1  3.0812148E-03
 TTTTTTTTTTTTTTTTTTTTTTTTTTTTTT TOTGRA      TELAPSE       18.53 TCPU       15.97
 INFORMATION **** optc001 **** GEOMETRY OUTPUT FILE
 CLASSICAL MODEL (SCHLEGEL) USED AS INITIAL HESSIAN MATRIX
 REFERENCE GEOMETRY DEFINED

 MAX GRADIENT      0.003081  THRESHOLD              0.000045 CONVERGED NO
 RMS GRADIENT      0.003081  THRESHOLD              0.000030 CONVERGED NO

 GRADIENT NORM     0.003081  GRADIENT THRESHOLD     0.500000

 EIGENVALUES OF THE ESTIMATED HESSIAN
   2.763    

 INITIAL TRUST RADIUS    0.5000000000E+00

 PREDICTED ENERGY CHANGE    -0.172E-05

 INITIAL DISPLACEMENTS
  0.001115
 TTTTTTTTTTTTTTTTTTTTTTTTTTTTTT OPTI        TELAPSE       18.57 TCPU       16.00

 OPTOPTOPTOPTOPTOPTOPTOPTOPTOPTOPTOPTOPTOPTOPTOPTOPTOPTOPTOPTOPTOPTOPTOPTOPTOPT

 - INFORMATION ON SCF MOVED TO SCFOUT.LOG
 GEOMETRY OPTIMIZATION INFORMATION STORED IN OPTINFO.DAT

 OPTOPTOPTOPTOPTOPTOPTOPTOPTOPTOPTOPTOPTOPTOPTOPTOPTOPTOPTOPTOPTOPTOPTOPTOPTOPT
 *******************************************************************************
 CELL OPTIMIZATION - POINT    2
 *******************************************************************************
 LATTICE PARAMETERS (ANGSTROMS AND DEGREES) - BOHR = 0.5291772083 ANGSTROM
 PRIMITIVE CELL - CENTRING CODE 5/0 VOLUME=    45.755847 - DENSITY  5.220 g/cm^3
         A              B              C           ALPHA      BETA       GAMMA 
     4.01470711     4.01470711     4.01470711    60.000000  60.000000  60.000000
 *******************************************************************************
 ATOMS IN THE ASYMMETRIC UNIT    2 - ATOMS IN THE UNIT CELL:    2
     ATOM                 X/A                 Y/B                 Z/C    
 *******************************************************************************
      1 T  30 ZN    0.000000000000E+00  0.000000000000E+00  0.000000000000E+00
      2 T  34 SE    2.500000000000E-01  2.500000000000E-01  2.500000000000E-01

 TRANSFORMATION MATRIX PRIMITIVE-CRYSTALLOGRAPHIC CELL
 -1.0000  1.0000  1.0000  1.0000 -1.0000  1.0000  1.0000  1.0000 -1.0000

 *******************************************************************************
 CRYSTALLOGRAPHIC CELL (VOLUME=        183.02338993)
         A              B              C           ALPHA      BETA       GAMMA 
     5.67765324     5.67765324     5.67765324    90.000000  90.000000  90.000000

 COORDINATES IN THE CRYSTALLOGRAPHIC CELL
     ATOM                 X/A                 Y/B                 Z/C    
 *******************************************************************************
      1 T  30 ZN    0.000000000000E+00  0.000000000000E+00  0.000000000000E+00
      2 T  34 SE    2.500000000000E-01 -2.500000000000E-01 -2.500000000000E-01

 T = ATOM BELONGING TO THE ASYMMETRIC UNIT

 TOTAL ENERGY(DFT)(AU)( 12) -4.1804878177744E+03     DE (AU)   -1.992E-06

 UPDATED TRUST RADIUS     0.500E+00

 SYMMETRY ALLOWED FORCES  (COORDINATE, FORCE)

    1  5.7403484E-04

 GRADIENT NORM     0.000574  GRADIENT THRESHOLD     0.500000

 EIGENVALUES OF THE ESTIMATED HESSIAN
   2.248    

 PREDICTED ENERGY CHANGE    -0.733E-07

 MAX GRADIENT      0.000574  THRESHOLD              0.000045 CONVERGED NO
 RMS GRADIENT      0.000574  THRESHOLD              0.000030 CONVERGED NO
 MAX DISPLAC.      0.000255  THRESHOLD              0.000180 CONVERGED NO
 RMS DISPLAC.      0.000255  THRESHOLD              0.000120 CONVERGED NO
 TTTTTTTTTTTTTTTTTTTTTTTTTTTTTT OPTI        TELAPSE       32.24 TCPU       29.53
 *******************************************************************************
 CELL OPTIMIZATION - POINT    3
 *******************************************************************************
 LATTICE PARAMETERS (ANGSTROMS AND DEGREES) - BOHR = 0.5291772083 ANGSTROM
 PRIMITIVE CELL - CENTRING CODE 5/0 VOLUME=    45.776086 - DENSITY  5.218 g/cm^3
         A              B              C           ALPHA      BETA       GAMMA 
     4.01529894     4.01529894     4.01529894    60.000000  60.000000  60.000000
 *******************************************************************************
 ATOMS IN THE ASYMMETRIC UNIT    2 - ATOMS IN THE UNIT CELL:    2
     ATOM                 X/A                 Y/B                 Z/C    
 *******************************************************************************
      1 T  30 ZN    0.000000000000E+00  0.000000000000E+00  0.000000000000E+00
      2 T  34 SE    2.500000000000E-01  2.500000000000E-01  2.500000000000E-01

 TRANSFORMATION MATRIX PRIMITIVE-CRYSTALLOGRAPHIC CELL
 -1.0000  1.0000  1.0000  1.0000 -1.0000  1.0000  1.0000  1.0000 -1.0000

 *******************************************************************************
 CRYSTALLOGRAPHIC CELL (VOLUME=        183.10434313)
         A              B              C           ALPHA      BETA       GAMMA 
     5.67849022     5.67849022     5.67849022    90.000000  90.000000  90.000000

 COORDINATES IN THE CRYSTALLOGRAPHIC CELL
     ATOM                 X/A                 Y/B                 Z/C    
 *******************************************************************************
      1 T  30 ZN    0.000000000000E+00  0.000000000000E+00  0.000000000000E+00
      2 T  34 SE    2.500000000000E-01 -2.500000000000E-01 -2.500000000000E-01

 T = ATOM BELONGING TO THE ASYMMETRIC UNIT

 TOTAL ENERGY(DFT)(AU)(  9) -4.1804878178401E+03     DE (AU)   -6.564E-08

 UPDATED TRUST RADIUS     0.500E+00

 SYMMETRY ALLOWED FORCES  (COORDINATE, FORCE)

    1 -1.9438929E-05

 GRADIENT NORM     0.000019  GRADIENT THRESHOLD     0.500000

 EIGENVALUES OF THE ESTIMATED HESSIAN
   2.324    

 PREDICTED ENERGY CHANGE    -0.813E-10

 MAX GRADIENT      0.000019  THRESHOLD              0.000045 CONVERGED YES
 RMS GRADIENT      0.000019  THRESHOLD              0.000030 CONVERGED YES
 MAX DISPLAC.      0.000008  THRESHOLD              0.000180 CONVERGED YES
 RMS DISPLAC.      0.000008  THRESHOLD              0.000120 CONVERGED YES

 CONVERGENCE TESTS SATISFIED AFTER   3 ENERGY AND GRADIENT CALCULATIONS
 +++++++++++++++++++++++++++++++++++++++++++++++++++++++++++++++++++++++++++++++
 FINALRUN OPTION: RE-STARTING OPTIMIZATION
 +++++++++++++++++++++++++++++++++++++++++++++++++++++++++++++++++++++++++++++++
 TTTTTTTTTTTTTTTTTTTTTTTTTTTTTT OPTI        TELAPSE       43.91 TCPU       41.09
 *******************************************************************************
 CELL OPTIMIZATION - POINT    4
 *******************************************************************************
 LATTICE PARAMETERS (ANGSTROMS AND DEGREES) - BOHR = 0.5291772083 ANGSTROM
 PRIMITIVE CELL - CENTRING CODE 5/0 VOLUME=    45.775423 - DENSITY  5.218 g/cm^3
         A              B              C           ALPHA      BETA       GAMMA 
     4.01527955     4.01527955     4.01527955    60.000000  60.000000  60.000000
 *******************************************************************************
 ATOMS IN THE ASYMMETRIC UNIT    2 - ATOMS IN THE UNIT CELL:    2
     ATOM                 X/A                 Y/B                 Z/C    
 *******************************************************************************
      1 T  30 ZN    0.000000000000E+00  0.000000000000E+00  0.000000000000E+00
      2 T  34 SE    2.500000000000E-01  2.500000000000E-01  2.500000000000E-01

 TRANSFORMATION MATRIX PRIMITIVE-CRYSTALLOGRAPHIC CELL
 -1.0000  1.0000  1.0000  1.0000 -1.0000  1.0000  1.0000  1.0000 -1.0000

 *******************************************************************************
 CRYSTALLOGRAPHIC CELL (VOLUME=        183.10169078)
         A              B              C           ALPHA      BETA       GAMMA 
     5.67846280     5.67846280     5.67846280    90.000000  90.000000  90.000000

 COORDINATES IN THE CRYSTALLOGRAPHIC CELL
     ATOM                 X/A                 Y/B                 Z/C    
 *******************************************************************************
      1 T  30 ZN    0.000000000000E+00  0.000000000000E+00  0.000000000000E+00
      2 T  34 SE    2.500000000000E-01 -2.500000000000E-01 -2.500000000000E-01

 T = ATOM BELONGING TO THE ASYMMETRIC UNIT

 REFERENCE GEOMETRY WILL BE CHANGED

 TOTAL ENERGY(DFT)(AU)(  9) -4.1804878260821E+03     DE (AU)   -8.242E-06

 SYMMETRY ALLOWED FORCES  (COORDINATE, FORCE)

    1 -5.9385977E-05

 GRADIENT NORM     0.000059  GRADIENT THRESHOLD     0.500000

 HESSIAN UPDATE SKIPPED

 EIGENVALUES OF THE ESTIMATED HESSIAN
   2.324    

 PREDICTED ENERGY CHANGE    -0.759E-09

 MAX GRADIENT      0.000059  THRESHOLD              0.000045 CONVERGED NO
 RMS GRADIENT      0.000059  THRESHOLD              0.000030 CONVERGED NO
 MAX DISPLAC.      0.000026  THRESHOLD              0.000180 CONVERGED YES
 RMS DISPLAC.      0.000026  THRESHOLD              0.000120 CONVERGED YES
 TTTTTTTTTTTTTTTTTTTTTTTTTTTTTT OPTI        TELAPSE       55.62 TCPU       52.68
 *******************************************************************************
 CELL OPTIMIZATION - POINT    5
 *******************************************************************************
 LATTICE PARAMETERS (ANGSTROMS AND DEGREES) - BOHR = 0.5291772083 ANGSTROM
 PRIMITIVE CELL - CENTRING CODE 5/0 VOLUME=    45.773397 - DENSITY  5.218 g/cm^3
         A              B              C           ALPHA      BETA       GAMMA 
     4.01522032     4.01522032     4.01522032    60.000000  60.000000  60.000000
 *******************************************************************************
 ATOMS IN THE ASYMMETRIC UNIT    2 - ATOMS IN THE UNIT CELL:    2
     ATOM                 X/A                 Y/B                 Z/C    
 *******************************************************************************
      1 T  30 ZN    0.000000000000E+00  0.000000000000E+00  0.000000000000E+00
      2 T  34 SE    2.500000000000E-01  2.500000000000E-01  2.500000000000E-01

 TRANSFORMATION MATRIX PRIMITIVE-CRYSTALLOGRAPHIC CELL
 -1.0000  1.0000  1.0000  1.0000 -1.0000  1.0000  1.0000  1.0000 -1.0000

 *******************************************************************************
 CRYSTALLOGRAPHIC CELL (VOLUME=        183.09358804)
         A              B              C           ALPHA      BETA       GAMMA 
     5.67837903     5.67837903     5.67837903    90.000000  90.000000  90.000000

 COORDINATES IN THE CRYSTALLOGRAPHIC CELL
     ATOM                 X/A                 Y/B                 Z/C    
 *******************************************************************************
      1 T  30 ZN    0.000000000000E+00  0.000000000000E+00  0.000000000000E+00
      2 T  34 SE    2.500000000000E-01 -2.500000000000E-01 -2.500000000000E-01

 T = ATOM BELONGING TO THE ASYMMETRIC UNIT

 TOTAL ENERGY(DFT)(AU)(  8) -4.1804878260918E+03     DE (AU)   -9.691E-09

 UPDATED TRUST RADIUS     0.500E+00

 SYMMETRY ALLOWED FORCES  (COORDINATE, FORCE)

    1 -2.7695614E-05

 GRADIENT NORM     0.000028  GRADIENT THRESHOLD     0.500000

 EIGENVALUES OF THE ESTIMATED HESSIAN
   1.240    

 PREDICTED ENERGY CHANGE    -0.309E-09

 MAX GRADIENT      0.000028  THRESHOLD              0.000045 CONVERGED YES
 RMS GRADIENT      0.000028  THRESHOLD              0.000030 CONVERGED YES

 WARNINGWARNINGWARNINGWARNINGWARNINGWARNINGWARNINGWARNINGWARNINGWARNINGWARNING

 CONVERGENCE ON GRADIENT - NO CHANGE IN ENERGY FOR   2 STEPS

 CONVERGENCE TESTS SATISFIED AFTER   5 ENERGY AND GRADIENT CALCULATIONS

 WARNINGWARNINGWARNINGWARNINGWARNINGWARNINGWARNINGWARNINGWARNINGWARNINGWARNING

 +++++++++++++++++++++++++++++++++++++++++++++++++++++++++++++++++++++++++++++++
 FINALRUN OPTION: RE-STARTING OPTIMIZATION
 +++++++++++++++++++++++++++++++++++++++++++++++++++++++++++++++++++++++++++++++
 TTTTTTTTTTTTTTTTTTTTTTTTTTTTTT OPTI        TELAPSE       66.59 TCPU       63.56
 *******************************************************************************
 CELL OPTIMIZATION - POINT    6
 *******************************************************************************
 LATTICE PARAMETERS (ANGSTROMS AND DEGREES) - BOHR = 0.5291772083 ANGSTROM
 PRIMITIVE CELL - CENTRING CODE 5/0 VOLUME=    45.771627 - DENSITY  5.219 g/cm^3
         A              B              C           ALPHA      BETA       GAMMA 
     4.01516856     4.01516856     4.01516856    60.000000  60.000000  60.000000
 *******************************************************************************
 ATOMS IN THE ASYMMETRIC UNIT    2 - ATOMS IN THE UNIT CELL:    2
     ATOM                 X/A                 Y/B                 Z/C    
 *******************************************************************************
      1 T  30 ZN    0.000000000000E+00  0.000000000000E+00  0.000000000000E+00
      2 T  34 SE    2.500000000000E-01  2.500000000000E-01  2.500000000000E-01

 TRANSFORMATION MATRIX PRIMITIVE-CRYSTALLOGRAPHIC CELL
 -1.0000  1.0000  1.0000  1.0000 -1.0000  1.0000  1.0000  1.0000 -1.0000

 *******************************************************************************
 CRYSTALLOGRAPHIC CELL (VOLUME=        183.08650700)
         A              B              C           ALPHA      BETA       GAMMA 
     5.67830583     5.67830583     5.67830583    90.000000  90.000000  90.000000

 COORDINATES IN THE CRYSTALLOGRAPHIC CELL
     ATOM                 X/A                 Y/B                 Z/C    
 *******************************************************************************
      1 T  30 ZN    0.000000000000E+00  0.000000000000E+00  0.000000000000E+00
      2 T  34 SE    2.500000000000E-01 -2.500000000000E-01 -2.500000000000E-01

 T = ATOM BELONGING TO THE ASYMMETRIC UNIT

 REFERENCE GEOMETRY WILL BE CHANGED

 TOTAL ENERGY(DFT)(AU)(  7) -4.1804878259655E+03     DE (AU)    1.263E-07

 SYMMETRY ALLOWED FORCES  (COORDINATE, FORCE)

    1  4.8047143E-05

 GRADIENT NORM     0.000048  GRADIENT THRESHOLD     0.500000

 HESSIAN UPDATE SKIPPED

 EIGENVALUES OF THE ESTIMATED HESSIAN
   1.240    

 PREDICTED ENERGY CHANGE    -0.931E-09

 MAX GRADIENT      0.000048  THRESHOLD              0.000045 CONVERGED NO
 RMS GRADIENT      0.000048  THRESHOLD              0.000030 CONVERGED NO
 MAX DISPLAC.      0.000039  THRESHOLD              0.000180 CONVERGED YES
 RMS DISPLAC.      0.000039  THRESHOLD              0.000120 CONVERGED YES
 TTTTTTTTTTTTTTTTTTTTTTTTTTTTTT OPTI        TELAPSE       76.86 TCPU       73.73
 *******************************************************************************
 CELL OPTIMIZATION - POINT    7
 *******************************************************************************
 LATTICE PARAMETERS (ANGSTROMS AND DEGREES) - BOHR = 0.5291772083 ANGSTROM
 PRIMITIVE CELL - CENTRING CODE 5/0 VOLUME=    45.774698 - DENSITY  5.218 g/cm^3
         A              B              C           ALPHA      BETA       GAMMA 
     4.01525836     4.01525836     4.01525836    60.000000  60.000000  60.000000
 *******************************************************************************
 ATOMS IN THE ASYMMETRIC UNIT    2 - ATOMS IN THE UNIT CELL:    2
     ATOM                 X/A                 Y/B                 Z/C    
 *******************************************************************************
      1 T  30 ZN    0.000000000000E+00  0.000000000000E+00  0.000000000000E+00
      2 T  34 SE    2.500000000000E-01  2.500000000000E-01  2.500000000000E-01

 TRANSFORMATION MATRIX PRIMITIVE-CRYSTALLOGRAPHIC CELL
 -1.0000  1.0000  1.0000  1.0000 -1.0000  1.0000  1.0000  1.0000 -1.0000

 *******************************************************************************
 CRYSTALLOGRAPHIC CELL (VOLUME=        183.09879135)
         A              B              C           ALPHA      BETA       GAMMA 
     5.67843282     5.67843282     5.67843282    90.000000  90.000000  90.000000

 COORDINATES IN THE CRYSTALLOGRAPHIC CELL
     ATOM                 X/A                 Y/B                 Z/C    
 *******************************************************************************
      1 T  30 ZN    0.000000000000E+00  0.000000000000E+00  0.000000000000E+00
      2 T  34 SE    2.500000000000E-01 -2.500000000000E-01 -2.500000000000E-01

 T = ATOM BELONGING TO THE ASYMMETRIC UNIT

 TOTAL ENERGY(DFT)(AU)(  8) -4.1804878259532E+03     DE (AU)    1.234E-08

 UPDATED TRUST RADIUS     0.968E-05
 INFORMATION **** OPTGEN **** TOO SMALL TRUST RADIUS - INDICES UPDATED IN NEXT POINT

 SYMMETRY ALLOWED FORCES  (COORDINATE, FORCE)

    1 -5.9421708E-05

 GRADIENT NORM     0.000059  GRADIENT THRESHOLD     0.500000

 EIGENVALUES OF THE ESTIMATED HESSIAN
   2.774    

 PREDICTED ENERGY CHANGE    -0.636E-09

 MAX GRADIENT      0.000059  THRESHOLD              0.000045 CONVERGED NO
 RMS GRADIENT      0.000059  THRESHOLD              0.000030 CONVERGED NO
 MAX DISPLAC.      0.000021  THRESHOLD              0.000180 CONVERGED YES
 RMS DISPLAC.      0.000021  THRESHOLD              0.000120 CONVERGED YES
 TTTTTTTTTTTTTTTTTTTTTTTTTTTTTT OPTI        TELAPSE       87.77 TCPU       84.55
 *******************************************************************************
 CELL OPTIMIZATION - POINT    8
 *******************************************************************************
 LATTICE PARAMETERS (ANGSTROMS AND DEGREES) - BOHR = 0.5291772083 ANGSTROM
 PRIMITIVE CELL - CENTRING CODE 5/0 VOLUME=    45.773000 - DENSITY  5.218 g/cm^3
         A              B              C           ALPHA      BETA       GAMMA 
     4.01520870     4.01520870     4.01520870    60.000000  60.000000  60.000000
 *******************************************************************************
 ATOMS IN THE ASYMMETRIC UNIT    2 - ATOMS IN THE UNIT CELL:    2
     ATOM                 X/A                 Y/B                 Z/C    
 *******************************************************************************
      1 T  30 ZN    0.000000000000E+00  0.000000000000E+00  0.000000000000E+00
      2 T  34 SE    2.500000000000E-01  2.500000000000E-01  2.500000000000E-01

 TRANSFORMATION MATRIX PRIMITIVE-CRYSTALLOGRAPHIC CELL
 -1.0000  1.0000  1.0000  1.0000 -1.0000  1.0000  1.0000  1.0000 -1.0000

 *******************************************************************************
 CRYSTALLOGRAPHIC CELL (VOLUME=        183.09199886)
         A              B              C           ALPHA      BETA       GAMMA 
     5.67836261     5.67836261     5.67836261    90.000000  90.000000  90.000000

 COORDINATES IN THE CRYSTALLOGRAPHIC CELL
     ATOM                 X/A                 Y/B                 Z/C    
 *******************************************************************************
      1 T  30 ZN    0.000000000000E+00  0.000000000000E+00  0.000000000000E+00
      2 T  34 SE    2.500000000000E-01 -2.500000000000E-01 -2.500000000000E-01

 T = ATOM BELONGING TO THE ASYMMETRIC UNIT

 REFERENCE GEOMETRY WILL BE CHANGED

 TOTAL ENERGY(DFT)(AU)(  8) -4.1804878259838E+03     DE (AU)   -3.066E-08

 SYMMETRY ALLOWED FORCES  (COORDINATE, FORCE)

    1  9.1628608E-06

 GRADIENT NORM     0.000009  GRADIENT THRESHOLD     0.500000

 HESSIAN UPDATE SKIPPED

 EIGENVALUES OF THE ESTIMATED HESSIAN
   2.774    

 PREDICTED ENERGY CHANGE    -0.151E-10

 MAX GRADIENT      0.000009  THRESHOLD              0.000045 CONVERGED YES
 RMS GRADIENT      0.000009  THRESHOLD              0.000030 CONVERGED YES
 MAX DISPLAC.      0.000003  THRESHOLD              0.000180 CONVERGED YES
 RMS DISPLAC.      0.000003  THRESHOLD              0.000120 CONVERGED YES

 CONVERGENCE TESTS SATISFIED AFTER   8 ENERGY AND GRADIENT CALCULATIONS

 ******************************************************************
 * OPT END - CONVERGED * E(AU):  -4.180487825984E+03  POINTS    8 *
 ******************************************************************

   BAND GAP:                      4.3233  eV 

 EIGENVECTORS IN FORTRAN UNIT 10

 NEIGHBORS OF THE NON-EQUIVALENT ATOMS

 N = NUMBER OF NEIGHBORS AT DISTANCE R
    ATOM  N     R/ANG      R/AU   NEIGHBORS (ATOM LABELS AND CELL INDICES)
   1 ZN   4     2.4588     4.6465    2 SE   0 0 0    2 SE   1 0 0    2 SE   1 0-1
                                     2 SE   1-1 0
   1 ZN  12     4.0152     7.5876    1 ZN  -1 0 0    1 ZN   1 0 0    1 ZN  -1 0 1
                                     1 ZN   1 0-1    1 ZN  -1 1 0    1 ZN   1-1 0
                                     1 ZN   0-1 0    1 ZN   0 1 0    1 ZN   0-1 1
                                     1 ZN   0 1-1    1 ZN   0 0-1    1 ZN   0 0 1
   1 ZN  12     4.7082     8.8973    2 SE   0 1 0    2 SE   0-1 0    2 SE   0 1-1
                                     2 SE   0-1 1    2 SE   0 0 1    2 SE   0 0-1
                                     2 SE   1 1-1    2 SE   1-1 1    2 SE   1-1-1
                                     2 SE   2 0-1    2 SE   2-1 0    2 SE   2-1-1
   1 ZN   6     5.6784    10.7306    1 ZN  -1-1 1    1 ZN   1 1-1    1 ZN  -1 1-1
                                     1 ZN   1-1 1    1 ZN  -1 1 1    1 ZN   1-1-1
   1 ZN  12     6.1879    11.6933    2 SE  -1 0 0    2 SE  -1 0 1    2 SE  -1 1 0
                                     2 SE   1 1 0    2 SE   1 1-2    2 SE   1 0 1
                                     2 SE   1 0-2    2 SE   1-2 1    2 SE   1-2 0
                                     2 SE   2 0 0    2 SE   2 0-2    2 SE   2-2 0
   1 ZN  24     6.9545    13.1422    1 ZN  -2 0 1    1 ZN   2 0-1    1 ZN  -2 1 0
                                     1 ZN   2-1 0    1 ZN  -2 1 1    1 ZN   2-1-1
                                     1 ZN  -1-1 0    1 ZN   1 1 0    1 ZN  -1-1 2
                                     1 ZN   1 1-2    1 ZN  -1 0-1    1 ZN   1 0 1
                                     1 ZN  -1 0 2    1 ZN   1 0-2    1 ZN  -1 2-1
                                     1 ZN   1-2 1    1 ZN  -1 2 0    1 ZN   1-2 0
                                     1 ZN   0-2 1    1 ZN   0 2-1    1 ZN   0-1-1
                                     1 ZN   0 1 1    1 ZN   0-1 2    1 ZN   0 1-2

   2 SE   4     2.4588     4.6465    1 ZN   0 0 0    1 ZN  -1 0 0    1 ZN  -1 0 1
                                     1 ZN  -1 1 0
   2 SE  12     4.0152     7.5876    2 SE  -1 0 0    2 SE   1 0 0    2 SE  -1 0 1
                                     2 SE   1 0-1    2 SE  -1 1 0    2 SE   1-1 0
                                     2 SE   0-1 0    2 SE   0 1 0    2 SE   0-1 1
                                     2 SE   0 1-1    2 SE   0 0-1    2 SE   0 0 1
   2 SE  12     4.7082     8.8973    1 ZN   0-1 0    1 ZN   0 1 0    1 ZN   0-1 1
                                     1 ZN   0 1-1    1 ZN   0 0-1    1 ZN   0 0 1
                                     1 ZN  -1-1 1    1 ZN  -1 1-1    1 ZN  -1 1 1
                                     1 ZN  -2 0 1    1 ZN  -2 1 0    1 ZN  -2 1 1
   2 SE   6     5.6784    10.7306    2 SE  -1-1 1    2 SE   1 1-1    2 SE  -1 1-1
                                     2 SE   1-1 1    2 SE  -1 1 1    2 SE   1-1-1
   2 SE  12     6.1879    11.6933    1 ZN   1 0 0    1 ZN   1 0-1    1 ZN   1-1 0
                                     1 ZN  -1-1 0    1 ZN  -1-1 2    1 ZN  -1 0-1
                                     1 ZN  -1 0 2    1 ZN  -1 2-1    1 ZN  -1 2 0
                                     1 ZN  -2 0 0    1 ZN  -2 0 2    1 ZN  -2 2 0
   2 SE  24     6.9545    13.1422    2 SE  -2 0 1    2 SE   2 0-1    2 SE  -2 1 0
                                     2 SE   2-1 0    2 SE  -2 1 1    2 SE   2-1-1
                                     2 SE  -1-1 0    2 SE   1 1 0    2 SE  -1-1 2
                                     2 SE   1 1-2    2 SE  -1 0-1    2 SE   1 0 1
                                     2 SE  -1 0 2    2 SE   1 0-2    2 SE  -1 2-1
                                     2 SE   1-2 1    2 SE  -1 2 0    2 SE   1-2 0
                                     2 SE   0-2 1    2 SE   0 2-1    2 SE   0-1-1
                                     2 SE   0 1 1    2 SE   0-1 2    2 SE   0 1-2


 FINAL OPTIMIZED GEOMETRY - DIMENSIONALITY OF THE SYSTEM      3
 (NON PERIODIC DIRECTION: LATTICE PARAMETER FORMALLY SET TO 500)
 *******************************************************************************
 LATTICE PARAMETERS (ANGSTROMS AND DEGREES) - BOHR = 0.5291772083 ANGSTROM
 PRIMITIVE CELL - CENTRING CODE 5/0 VOLUME=    45.773000 - DENSITY  5.218 g/cm^3
         A              B              C           ALPHA      BETA       GAMMA 
     4.01520870     4.01520870     4.01520870    60.000000  60.000000  60.000000
 *******************************************************************************
 ATOMS IN THE ASYMMETRIC UNIT    2 - ATOMS IN THE UNIT CELL:    2
     ATOM                 X/A                 Y/B                 Z/C    
 *******************************************************************************
      1 T  30 ZN    0.000000000000E+00  0.000000000000E+00  0.000000000000E+00
      2 T  34 SE    2.500000000000E-01  2.500000000000E-01  2.500000000000E-01

 TRANSFORMATION MATRIX PRIMITIVE-CRYSTALLOGRAPHIC CELL
 -1.0000  1.0000  1.0000  1.0000 -1.0000  1.0000  1.0000  1.0000 -1.0000

 *******************************************************************************
 CRYSTALLOGRAPHIC CELL (VOLUME=        183.09199886)
         A              B              C           ALPHA      BETA       GAMMA 
     5.67836261     5.67836261     5.67836261    90.000000  90.000000  90.000000

 COORDINATES IN THE CRYSTALLOGRAPHIC CELL
     ATOM                 X/A                 Y/B                 Z/C    
 *******************************************************************************
      1 T  30 ZN    0.000000000000E+00  0.000000000000E+00  0.000000000000E+00
      2 T  34 SE    2.500000000000E-01 -2.500000000000E-01 -2.500000000000E-01

 T = ATOM BELONGING TO THE ASYMMETRIC UNIT
 INFORMATION **** fort.34 **** GEOMETRY OUTPUT FILE

 DIRECT LATTICE VECTORS CARTESIAN COMPONENTS (ANGSTROM)
          X                    Y                    Z
   0.000000000000E+00   0.283918130280E+01   0.283918130280E+01
   0.283918130280E+01   0.000000000000E+00   0.283918130280E+01
   0.283918130280E+01   0.283918130280E+01   0.000000000000E+00


 CARTESIAN COORDINATES - PRIMITIVE CELL
 *******************************************************************************
 *      ATOM          X(ANGSTROM)         Y(ANGSTROM)         Z(ANGSTROM)
 *******************************************************************************
    1    30 ZN    0.000000000000E+00  0.000000000000E+00  0.000000000000E+00
    2    34 SE    1.419590651402E+00 -1.419590651402E+00 -1.419590651402E+00

 DFT PARAMETERS

     ATOM       ELECTRONS   NET CHARGE   R(ANGSTROM)
   1  30  ZN     30.0000      0.0000     1.37000000
   2  34  SE     34.0000      0.0000     1.17000000

 SIZE OF GRID=       5690
 TTTTTTTTTTTTTTTTTTTTTTTTTTTTTT MAKE_GRID2  TELAPSE      101.74 TCPU       98.24
 BECKE WEIGHT FUNCTION
 RADSAFE =     2.00
 TOLERANCES - DENSITY:10**- 6; POTENTIAL:10**- 9; GRID WGT:10**-14

 RADIAL INTEGRATION  - INTERVALS (POINTS,UPPER LIMIT):            1( 99,  4.0*R)

 ANGULAR INTEGRATION - INTERVALS (ACCURACY LEVEL [N. POINTS] UPPER LIMIT):
  1(  6[ 146]   0.2)  2( 11[ 302]   0.5)  3( 14[ 590]   0.9)  4( 18[1454]   3.5)
  5( 14[ 590]9999.0)
 EEEEEEEEEE INT_CALC TERMINATION  DATE 05 09 2023 TIME 18:13:59.7

 *******************************************************************************
 ICSD_CollCode77091.cif                                                          
 CRYSTAL - SCF - TYPE OF CALCULATION :  RESTRICTED CLOSED SHELL
 *******************************************************************************

 CAPPA:IS1  8;IS2  8;IS3  8; K PTS MONK NET  29; SYMMOPS:K SPACE  48;G SPACE  24

 TTTTTTTTTTTTTTTTTTTTTTTTTTTTTT SDIK        TELAPSE      101.79 TCPU       98.27

 INFORMATION FROM INTEGRAL EVALUATION

 RESTART FROM A PREVIOUS DENSITY MATRIX - DEP ACTIVE
 NUMBER OF COUPLE SETS (NEW, OLD, FOUND):     424     424     424
 NUMBER OF IRREDUCIBLE G VECTORS        :    2432    2432    2432
 TTTTTTTTTTTTTTTTTTTTTTTTTTTTTT MOQGAD      TELAPSE      101.79 TCPU       98.28
 TTTTTTTTTTTTTTTTTTTTTTTTTTTTTT SHELLXN     TELAPSE      102.41 TCPU       98.89
 TTTTTTTTTTTTTTTTTTTTTTTTTTTTTT MONMO3      TELAPSE      102.41 TCPU       98.89
 NUMERICALLY INTEGRATED DENSITY     64.0000156856
 TTTTTTTTTTTTTTTTTTTTTTTTTTTTTT NUMDFT      TELAPSE      102.47 TCPU       98.95
 CYC   0 ETOT(AU) -4.180487832346E+03 DETOT -4.18E+03 tst  3.07E-20 PX  1.00E+00
 TTTTTTTTTTTTTTTTTTTTTTTTTTTTTT DIIS        TELAPSE      102.47 TCPU       98.96
 TTTTTTTTTTTTTTTTTTTTTTTTTTTTTT FDIK        TELAPSE      102.48 TCPU       98.96
 INSULATING STATE
 TOP OF VALENCE BANDS -    BAND     32; K    1; EIG -2.2441083E-01 AU
 BOTTOM OF VIRTUAL BANDS - BAND     33; K    1; EIG -6.5526750E-02 AU
 DIRECT ENERGY BAND GAP:   4.3235 eV
 TTTTTTTTTTTTTTTTTTTTTTTTTTTTTT PDIG        TELAPSE      102.50 TCPU       98.98
 TTTTTTTTTTTTTTTTTTTTTTTTTTTTTT MOQGAD      TELAPSE      102.50 TCPU       98.98
 TTTTTTTTTTTTTTTTTTTTTTTTTTTTTT SHELLXN     TELAPSE      103.12 TCPU       99.59
 TTTTTTTTTTTTTTTTTTTTTTTTTTTTTT MONMO3      TELAPSE      103.12 TCPU       99.59
 NUMERICALLY INTEGRATED DENSITY     64.0000156853
 TTTTTTTTTTTTTTTTTTTTTTTTTTTTTT NUMDFT      TELAPSE      103.17 TCPU       99.65
 CYC   1 ETOT(AU) -4.180487825975E+03 DETOT  6.37E-06 tst  0.00E+00 PX  1.65E-04
 TTTTTTTTTTTTTTTTTTTTTTTTTTTTTT DIIS        TELAPSE      103.18 TCPU       99.65
 DIIS TEST: 0.12759E-07 AT SCF   CYCLE   1 - MIX   30 %
 TTTTTTTTTTTTTTTTTTTTTTTTTTTTTT FDIK        TELAPSE      103.18 TCPU       99.65
 INSULATING STATE
 TOP OF VALENCE BANDS -    BAND     32; K    1; EIG -2.2441136E-01 AU
 BOTTOM OF VIRTUAL BANDS - BAND     33; K    1; EIG -6.5529477E-02 AU
 DIRECT ENERGY BAND GAP:   4.3234 eV
 TTTTTTTTTTTTTTTTTTTTTTTTTTTTTT PDIG        TELAPSE      103.20 TCPU       99.67
 TTTTTTTTTTTTTTTTTTTTTTTTTTTTTT MOQGAD      TELAPSE      103.20 TCPU       99.67
 TTTTTTTTTTTTTTTTTTTTTTTTTTTTTT SHELLXN     TELAPSE      103.82 TCPU      100.29
 TTTTTTTTTTTTTTTTTTTTTTTTTTTTTT MONMO3      TELAPSE      103.82 TCPU      100.29
 NUMERICALLY INTEGRATED DENSITY     64.0000156855
 TTTTTTTTTTTTTTTTTTTTTTTTTTTTTT NUMDFT      TELAPSE      103.88 TCPU      100.34
 CYC   2 ETOT(AU) -4.180487826017E+03 DETOT -4.20E-08 tst  3.15E-08 PX  1.15E-04
 TTTTTTTTTTTTTTTTTTTTTTTTTTTTTT DIIS        TELAPSE      103.88 TCPU      100.34
 DIIS TEST: 0.21646E-08 AT SCF   CYCLE   2 - DIIS ACTIVE - HISTORY:     2 CYCLES
 TTTTTTTTTTTTTTTTTTTTTTTTTTTTTT FDIK        TELAPSE      103.88 TCPU      100.35
 INSULATING STATE
 TOP OF VALENCE BANDS -    BAND     32; K    1; EIG -2.2441016E-01 AU
 BOTTOM OF VIRTUAL BANDS - BAND     33; K    1; EIG -6.5530260E-02 AU
 DIRECT ENERGY BAND GAP:   4.3233 eV
 TTTTTTTTTTTTTTTTTTTTTTTTTTTTTT PDIG        TELAPSE      103.90 TCPU      100.37
 TTTTTTTTTTTTTTTTTTTTTTTTTTTTTT MOQGAD      TELAPSE      103.90 TCPU      100.37
 TTTTTTTTTTTTTTTTTTTTTTTTTTTTTT SHELLXN     TELAPSE      104.52 TCPU      100.98
 TTTTTTTTTTTTTTTTTTTTTTTTTTTTTT MONMO3      TELAPSE      104.52 TCPU      100.98
 NUMERICALLY INTEGRATED DENSITY     64.0000156856
 TTTTTTTTTTTTTTTTTTTTTTTTTTTTTT NUMDFT      TELAPSE      104.58 TCPU      101.04
 CYC   3 ETOT(AU) -4.180487825979E+03 DETOT  3.84E-08 tst  5.93E-09 PX  5.00E-05
 TTTTTTTTTTTTTTTTTTTTTTTTTTTTTT DIIS        TELAPSE      104.58 TCPU      101.04
 DIIS TEST: 0.45931E-08 AT SCF   CYCLE   3 - DIIS ACTIVE - HISTORY:     3 CYCLES
 TTTTTTTTTTTTTTTTTTTTTTTTTTTTTT FDIK        TELAPSE      104.59 TCPU      101.04
 INSULATING STATE
 TOP OF VALENCE BANDS -    BAND     32; K    1; EIG -2.2441074E-01 AU
 BOTTOM OF VIRTUAL BANDS - BAND     33; K    1; EIG -6.5531185E-02 AU
 DIRECT ENERGY BAND GAP:   4.3233 eV
 TTTTTTTTTTTTTTTTTTTTTTTTTTTTTT PDIG        TELAPSE      104.61 TCPU      101.06
 TTTTTTTTTTTTTTTTTTTTTTTTTTTTTT MOQGAD      TELAPSE      104.61 TCPU      101.06
 TTTTTTTTTTTTTTTTTTTTTTTTTTTTTT SHELLXN     TELAPSE      105.23 TCPU      101.67
 TTTTTTTTTTTTTTTTTTTTTTTTTTTTTT MONMO3      TELAPSE      105.23 TCPU      101.68
 NUMERICALLY INTEGRATED DENSITY     64.0000156856
 TTTTTTTTTTTTTTTTTTTTTTTTTTTTTT NUMDFT      TELAPSE      105.28 TCPU      101.73
 CYC   4 ETOT(AU) -4.180487825984E+03 DETOT -5.25E-09 tst  4.70E-12 PX  3.02E-06
 TTTTTTTTTTTTTTTTTTTTTTTTTTTTTT DIIS        TELAPSE      105.29 TCPU      101.73
 DIIS TEST: 0.11232E-10 AT SCF   CYCLE   4 - DIIS ACTIVE - HISTORY:     4 CYCLES
 TTTTTTTTTTTTTTTTTTTTTTTTTTTTTT FDIK        TELAPSE      105.30 TCPU      101.74
 INSULATING STATE
 TOP OF VALENCE BANDS -    BAND     32; K    1; EIG -2.2441094E-01 AU
 BOTTOM OF VIRTUAL BANDS - BAND     33; K    1; EIG -6.5531262E-02 AU
 DIRECT ENERGY BAND GAP:   4.3233 eV
 TTTTTTTTTTTTTTTTTTTTTTTTTTTTTT PDIG        TELAPSE      105.32 TCPU      101.75
 TTTTTTTTTTTTTTTTTTTTTTTTTTTTTT MOQGAD      TELAPSE      105.32 TCPU      101.75
 TTTTTTTTTTTTTTTTTTTTTTTTTTTTTT SHELLXN     TELAPSE      105.93 TCPU      102.37
 TTTTTTTTTTTTTTTTTTTTTTTTTTTTTT MONMO3      TELAPSE      105.94 TCPU      102.37
 NUMERICALLY INTEGRATED DENSITY     64.0000156856
 TTTTTTTTTTTTTTTTTTTTTTTTTTTTTT NUMDFT      TELAPSE      105.99 TCPU      102.43
 CYC   5 ETOT(AU) -4.180487825984E+03 DETOT -5.37E-11 tst  7.96E-14 PX  9.83E-07
 TTTTTTTTTTTTTTTTTTTTTTTTTTTTTT DIIS        TELAPSE      105.99 TCPU      102.43
 DIIS TEST: 0.50422E-12 AT SCF   CYCLE   5 - DIIS ACTIVE - HISTORY:     5 CYCLES
 TTTTTTTTTTTTTTTTTTTTTTTTTTTTTT FDIK        TELAPSE      106.00 TCPU      102.43
 INSULATING STATE
 TOP OF VALENCE BANDS -    BAND     32; K    1; EIG -2.2441085E-01 AU
 BOTTOM OF VIRTUAL BANDS - BAND     33; K    1; EIG -6.5531213E-02 AU
 DIRECT ENERGY BAND GAP:   4.3233 eV
 TTTTTTTTTTTTTTTTTTTTTTTTTTTTTT PDIG        TELAPSE      106.02 TCPU      102.45
 TTTTTTTTTTTTTTTTTTTTTTTTTTTTTT MOQGAD      TELAPSE      106.02 TCPU      102.45
 TTTTTTTTTTTTTTTTTTTTTTTTTTTTTT SHELLXN     TELAPSE      106.64 TCPU      103.06
 TTTTTTTTTTTTTTTTTTTTTTTTTTTTTT MONMO3      TELAPSE      106.64 TCPU      103.06
 NUMERICALLY INTEGRATED DENSITY     64.0000156856
 TTTTTTTTTTTTTTTTTTTTTTTTTTTTTT NUMDFT      TELAPSE      106.70 TCPU      103.12
 CYC   6 ETOT(AU) -4.180487825984E+03 DETOT  4.00E-11 tst  1.72E-15 PX  2.04E-07
 TTTTTTTTTTTTTTTTTTTTTTTTTTTTTT DIIS        TELAPSE      106.70 TCPU      103.12
 DIIS TEST: 0.16717E-13 AT SCF   CYCLE   6 - DIIS ACTIVE - HISTORY:     6 CYCLES
 TTTTTTTTTTTTTTTTTTTTTTTTTTTTTT FDIK        TELAPSE      106.71 TCPU      103.13
 INSULATING STATE
 TOP OF VALENCE BANDS -    BAND     32; K    1; EIG -2.2441083E-01 AU
 BOTTOM OF VIRTUAL BANDS - BAND     33; K    1; EIG -6.5531205E-02 AU
 DIRECT ENERGY BAND GAP:   4.3233 eV
 TTTTTTTTTTTTTTTTTTTTTTTTTTTTTT PDIG        TELAPSE      106.73 TCPU      103.15
[...]
     ZZZZ    1.8855E+05 (   1.8855E+05)   1.2784E+03   1.2087E+01   8.6448E+00

 *******************************************************************************
 SECOND HYPERPOLARIZABILITY (GAMMA) IS RELATED TO THIRD ELECTRIC
         SUSCEPTIBILITY (CHI(3)) AS FOLLOWS:

                             CHI(3)=GAMMA*2PI/(3V)

         IN THE PRESENT CASE 2PI/3V =      0.0068

         GAMMA AND CHI(3) ARE EXPRESSED IN M^(-1)*L^4*T^2 AND IN F^(-2),
         RESPECTIVELY (L=LENGTH, M=MASS, T=TIME, F=FIELD). ATOMIC UNITS
         ARE USED.

         ELECTRIC SUSCEPTIBILITY IN THE THIRD HARMONIC GENERATION ( THG )
         CONVENTION IS CHI(3)(THG)=(1/4)*CHI(3).

              g(MKS)=CHI(3)(THG)*5.14220632^(-2)   (10^(-22) m^2/V^2)

              g(CGS)=CHI(3)(THG)*1.7152535^(-2)   (10^(-14) esu)

         (5.14220632*10^(11))^(-2) AND (4PI*1.7152535*10^7)^(-2) ARE THE CON-
         VERSION FACTORS FOR OBTAINING CHI(3)(THG) IN m^2/V^2 (MKS) AND
         esu (CGS), RESPECTIVELY: A FIELD WITH 1 A.U. MODULUS

                                  F=Q/(4PI*E0*R^2)

         CORRESPONDS TO  0.514220632*10^(12) V/m  (OR 1.7152535*10^7 esu),
         THEREFORE, CHI(3)(THG) IN MKS (OR CGS) CAN BE OBTAINED DIVIDING
         THE A.U. VALUE BY THE SQUARE OF THIS NUMBER.
         BECAUSE OF A SLIGHT DIFFERENCE IN DEFINITION

                             CHI(3)=P/(E0*F^3)   (MKS)

                             CHI(3)=P/F^3        (CGS)

         WHERE P IS  THE  POLARIZATION  VECTOR AND F THE APPLIED ELECTRIC
         FIELD, CONSISTENCY IS  PRESERVED BY MULTIPLYING THE CGS VALUE FOR
         THE CONSTANT PERMITTIVITY OF THE VACUUM, E0=1/(4PI).

         FOR REFERENCES ABOUT UNITS AND CONVERSION FACTORS CONSULT THE WEB
         SITE www.physics.nist.gov/constants.


 GCALCO - MAX INDICES DIRECT LATTICE VECTOR    14    14    14
 NO.OF VECTORS CREATED 6999 STARS  105 RMAX    80.30008 BOHR

 CAPPA:IS1  8;IS2  8;IS3  8; K PTS MONK NET  29; SYMMOPS:K SPACE  48;G SPACE  24

 TTTTTTTTTTTTTTTTTTTTTTTTTTTTTT gordsh1     TELAPSE      218.26 TCPU      213.23

 MATRIX SIZE: P(G)  366311, F(G)   31029, P(G) IRR   18084, F(G) IRR    5357
 MAX G-VECTOR INDEX FOR 1- AND 2-ELECTRON INTEGRALS 477

 TTTTTTTTTTTTTTTTTTTTTTTTTTTTTT INPUT       TELAPSE      218.26 TCPU      213.23

 THERE ARE NO SYMMETRY ALLOWED DIRECTIONS
 TTTTTTTTTTTTTTTTTTTTTTTTTTTTTT SYMM        TELAPSE      218.33 TCPU      213.30
 TTTTTTTTTTTTTTTTTTTTTTTTTTTTTT INT_SCREEN  TELAPSE      218.33 TCPU      213.30

 COMPUTING IR TENSOR ALONG DIRECTION X
 COMPUTING IR TENSOR ALONG DIRECTION Y
 COMPUTING IR TENSOR ALONG DIRECTION Z

 TTTTTTTTTTTTTTTTTTTTTTTTTTTTTT IR TENSOR   TELAPSE      337.62 TCPU      329.76

 COMPUTING RAMAN TENSOR ALONG DIRECTION XX
 COMPUTING RAMAN TENSOR ALONG DIRECTION XY
 COMPUTING RAMAN TENSOR ALONG DIRECTION XZ
 COMPUTING RAMAN TENSOR ALONG DIRECTION YY
 COMPUTING RAMAN TENSOR ALONG DIRECTION YZ
 COMPUTING RAMAN TENSOR ALONG DIRECTION ZZ


 GCALCO - MAX INDICES DIRECT LATTICE VECTOR    14    14    14
 NO.OF VECTORS CREATED 6999 STARS  105 RMAX    80.30008 BOHR

 CAPPA:IS1  8;IS2  8;IS3  8; K PTS MONK NET  29; SYMMOPS:K SPACE  48;G SPACE  24

 TTTTTTTTTTTTTTTTTTTTTTTTTTTTTT gordsh1     TELAPSE      738.96 TCPU      727.13

 MATRIX SIZE: P(G)  366311, F(G)   31029, P(G) IRR   18084, F(G) IRR    5357
 MAX G-VECTOR INDEX FOR 1- AND 2-ELECTRON INTEGRALS 477

 TTTTTTTTTTTTTTTTTTTTTTTTTTTTTT INPUT       TELAPSE      738.96 TCPU      727.13

 THERE ARE NO SYMMETRY ALLOWED DIRECTIONS
 TTTTTTTTTTTTTTTTTTTTTTTTTTTTTT SYMM        TELAPSE      738.98 TCPU      727.14
 TTTTTTTTTTTTTTTTTTTTTTTTTTTTTT INT_SCREEN  TELAPSE      738.98 TCPU      727.15
 TTTTTTTTTTTTTTTTTTTTTTTTTTTTTT RAMAN       TELAPSE      738.99 TCPU      727.15


 *******************************************************************************
 *                                                                             *
 *                                                                             *
 *         FFFFF  RRRR   EEEE   QQQ   U   U  EEEE  N   N   CCC  Y   Y          *
 *         F      R   R  E     Q   Q  U   U  E     NN  N  C      Y Y           *
 *         FFF    RRRR   EEEE  Q   Q  U   U  EEEE  N N N  C       Y            *
 *         F      R   R  E     Q  QQ  U   U  E     N  NN  C       Y            *
 *         F      R   R  EEEE   QQ Q   UUU   EEEE  N   N   CCC    Y            *
 *                                                                             *
 *                                                                             *
 * CALCULATION OF PHONON FREQUENCIES AT THE GAMMA POINT.                       *
 *                                                                             *
 * SYMMETRY IS EXPLOITED TO BUILD THE TOTAL HESSIAN MATRIX.                    *
 * (F. PASCALE PHD THESIS TURIN-PARIS 2002)                                    *
 *                                                                             *
 *******************************************************************************


 * INTENSITIES COMPUTED VIA THE CPHF ANALYTICAL APPROACH                       *
 *                                                                             *
 * REFERENCES TO BE QUOTED WHEN USING THIS MODULE:                             *
 *                                                                             *
 * F. Pascale, C.M. Zicovich-Wilson, F. Lopez, B. Civalleri                    *
 * R. Orlando, R. Dovesi                                                       *
 * The calculation of the vibration frequencies of crystalline                 *
 * compounds and its implementation in the CRYSTAL code                        *
 * J. Comput. Chem. 25 (2004) 888-897                                          *
 *                                                                             *
 * C.M. Zicovich-Wilson, F. Pascale, C. Roetti, V.R. Saunders,                 *
 * R. Orlando, R. Dovesi                                                       *
 * The calculation of the vibration frequencies of alpha-quartz:               *
 * the effect of hamiltonian and basis set                                     *
 * J. Comput. Chem. 25 (2004) 1873-1881                                        *
 *******************************************************************************


 *                                                                             *
 * FOR THE ANALYTICAL IR INTENSITIES MODULE PLEASE CITE:                       *
 *                                                                             *
 * L. Maschio, B. Kirtman, R. Orlando, M. Rerat,                               *
 * Ab initio analytical infrared intensities for periodic systems              *
 * through a coupled perturbed Hartree-Fock/Kohn-Sham method                   *
 * J. Chem. Phys. 137, 204113 (2012)                                           *
 *******************************************************************************



 ATOMS ISOTOPIC MASS (AMU) FOR FREQUENCY CALCULATION 

    1 ZN     63.9291    2 SE     79.9165

 INFORMATION CONCERNING THE SCF+GRADIENT CALCULATIONS REQUIRED FOR
 GENERATING FREQUENCIES. IN PRINCIPLE 3N+1 SCF + GRADIENT
 CALCULATIONS  ARE REQUIRED;
 FOR EACH OF THEM THE REMAINING POINT SYMMETRY IS INDICATED.
 POINT SYMMETRY PERMITS TO GENERATE GRADIENTS FOR DISPLACEMENT B 
 STARTING FROM THE GRADIENT GENERATED BY DISPLACEMENT A.

   N   LABEL SYMBOL DISPLACEMENT     SYM. 

   1     EQUILIBRIUM GEOMETRY           24

   2      1   ZN           DX        GENERATED BY TRANSLATIONAL INVARIANCE
   3      1   ZN           DY        GENERATED BY TRANSLATIONAL INVARIANCE
   4      1   ZN           DZ        GENERATED BY TRANSLATIONAL INVARIANCE
   5      2   SE           DX           4
   6      2   SE           DY        GENERATED FROM LINE X WITH OP   6
   7      2   SE           DZ        GENERATED FROM LINE X WITH OP   5
 USE OF RESIDUAL SYMMETRY AFTER DISPLACEMENT

 NUMERICAL GRADIENT COMPUTED WITH A SINGLE DISPLACEMENT (+DX) FOR EACH
 CARTESIAN COORDINATE WITH RESPECT TO THE EQUILIBRIUM CONFIGURATION
 DX=  0.003 ANGSTROM
 NUMBER OF IRREDUCIBLE ATOMS                     2
 NUMBER OF SCF+GRADIENT CALCULATIONS             2

  ATOM  SYMOP  ORDER
    1     24      4
    2     24      4

 ATOM  : IRREDUCIBLE ATOM
 SYMOP : NUMBER OF SYMMETRY OPERATORS THAT DOESN'T MOVE THE IRREDUCIBLE ATOM
 ORDER : MAXIMUM ORDER AMONG THE OPERATORS OF THE IRREDUCIBLE ATOM

 *******************************************************************************

 TTTTTTTTTTTTTTTTTTTTTTTTTTTTTT gordsh1     TELAPSE      738.99 TCPU      727.16

 MATRIX SIZE: P(G)  366311, F(G)   31029, P(G) IRR   18084, F(G) IRR    5357
 MAX G-VECTOR INDEX FOR 1- AND 2-ELECTRON INTEGRALS 477

 TTTTTTTTTTTTTTTTTTTTTTTTTTTTTT INPUT       TELAPSE      738.99 TCPU      727.16

 THERE ARE NO SYMMETRY ALLOWED DIRECTIONS
 TTTTTTTTTTTTTTTTTTTTTTTTTTTTTT SYMM        TELAPSE      739.00 TCPU      727.16
 TTTTTTTTTTTTTTTTTTTTTTTTTTTTTT INT_SCREEN  TELAPSE      739.00 TCPU      727.16

 HHHHHHHHHHHHHHHHHHHHHHHHHHHHHHHHHHHHHHHHHHHHHHHHHHHHHHHHHHHHHHHHHHHHHHHHHHHHHHH
                   FORCE CONSTANT MATRIX - NUMERICAL ESTIMATE
 HHHHHHHHHHHHHHHHHHHHHHHHHHHHHHHHHHHHHHHHHHHHHHHHHHHHHHHHHHHHHHHHHHHHHHHHHHHHHHH
 MAX ABS(DGRAD): MAXIMUM ABSOLUTE GRADIENT DIFFERENCE WITH RESPECT TO
                 THE CENTRAL POINT
 DE:             ENERGY DIFFERENCE WITH RESPECT TO THE CENTRAL POINT
                 (DE IS EXPECTED TO BE POSITIVE FOR ALL DISPLACEMENTS)

   ATOM      MAX ABS(DGRAD)       TOTAL ENERGY (AU)  N.CYC      DE       SYM
    CENTRAL POINT             -4.180487825984E+03     0     0.0000E+00    24
    2 SE DX   3.8189E-04      -4.180487824930E+03    11     1.0541E-06     4
    2 SE DY                   GENERATED FROM A PREVIOUS LINE
    2 SE DZ                   GENERATED FROM A PREVIOUS LINE

 GCALCO - MAX INDICES DIRECT LATTICE VECTOR    14    14    14
 NO.OF VECTORS CREATED 6999 STARS  105 RMAX    80.30008 BOHR

 CAPPA:IS1  8;IS2  8;IS3  8; K PTS MONK NET  29; SYMMOPS:K SPACE  48;G SPACE  24

 TTTTTTTTTTTTTTTTTTTTTTTTTTTTTT gordsh1     TELAPSE      775.26 TCPU      763.14

 MATRIX SIZE: P(G)  366311, F(G)   31029, P(G) IRR   18084, F(G) IRR    5357
 MAX G-VECTOR INDEX FOR 1- AND 2-ELECTRON INTEGRALS 477

 TTTTTTTTTTTTTTTTTTTTTTTTTTTTTT INPUT       TELAPSE      775.26 TCPU      763.14

 THERE ARE NO SYMMETRY ALLOWED DIRECTIONS
 TTTTTTTTTTTTTTTTTTTTTTTTTTTTTT SYMM        TELAPSE      775.28 TCPU      763.16
 TTTTTTTTTTTTTTTTTTTTTTTTTTTTTT INT_SCREEN  TELAPSE      775.28 TCPU      763.16

 ATOMIC BORN CHARGE TENSOR (UNITS OF e, ELECTRON CHARGE).
 DYNAMIC CHARGE = 1/3 * TRACE .

 ATOM   1 ZN DYNAMIC CHARGE     2.041980

              1           2           3
   1     2.0420E+00 -2.2058E-24  2.2058E-24
   2     2.2058E-24  2.0420E+00  0.0000E+00
   3    -2.2058E-24  0.0000E+00  2.0420E+00

 ATOM   2 SE DYNAMIC CHARGE    -2.041980

              1           2           3
   1    -2.0420E+00  2.2058E-24 -2.2058E-24
   2    -2.2058E-24 -2.0420E+00  0.0000E+00
   3     2.2058E-24  0.0000E+00 -2.0420E+00

 +++ SYMMETRY ADAPTION OF VIBRATIONAL MODES +++

 SYMMETRY INFORMATION:
 K-LITTLE GROUP: CLASS TABLE, CHARACTER TABLE.
 IRREP-(DIMENSION, NO. IRREDUCIBLE SETS)
 [WARNINGS: (1) ONLY ACTIVE IRREPS ARE GENERATED AND LISTED.
            (2) ONLY RELEVANT CLASSES ARE CONSIDERED IN THE CHARACTER TABLE
            (3) SYMBOLS MAY NOT FULLY COINCIDE WITH THOSE FROM TEXT BOOKS.]

 (P, D, RP, RD, STAND FOR PAIRING, DOUBLING, REAL PAIRING AND REAL DOUBLING 
 OF THE IRREPS (SEE MANUAL))

 CLASS  | GROUP OPERATORS (SEE SYMMOPS KEYWORD)
 --------------------------------------------------------------------
 C2     |   2;   3;   4;
 C3     |   5;  11;   7;   9;   6;  12;  10;   8;
 SGD    |  13;  14;  17;  18;  23;  24;
 S4     |  15;  16;  19;  20;  21;  22;

 IRREP/CLA      E     C2     C3    SGD     S4
 --------------------------------------------
  MULTIP |      1      3      8      6      6
 --------------------------------------------
    F    |   3.00  -1.00   0.00   1.00  -1.00

 F  -(3,   2);


 BORN CHARGE VECTOR IN THE BASIS OF NORMAL MODES (UNITS OF e*M_E**(-1/2) ).
 e AND M_E ARE UNITS OF ELECTRON CHARGE AND MASS, RESPECTIVELY.

 MODE         X              Y              Z
   1   -0.46473E-18   -0.95611E-42    0.95611E-42
   2    0.95611E-42   -0.46473E-18    0.00000E+00
   3   -0.95611E-42    0.00000E+00   -0.46473E-18
   4    0.86690E-26   -0.80251E-02    0.00000E+00
   5   -0.80251E-02   -0.86690E-26    0.86690E-26
   6   -0.86690E-26    0.00000E+00   -0.80251E-02

 HHHHHHHHHHHHHHHHHHHHHHHHHHHHHHHHHHHHHHHHHHHHHHHHHHHHHHHHHHHHHHHHHHHHHHHHHHHHHH
 VIBRATIONAL CONTRIBUTIONS TO THE STATIC DIELECTRIC TENSOR (OSCILLATOR
 STRENGTHS) ARE PURE NUMBERS. THEY ARE COMPUTED FOR EACH nth MODE AS:

   f_(n,ij) = 1 / (4 * pi * eps0) * 4 * pi / V * Z_(n,i) * Z_(n,j) / nu_n**2

 WHERE:
  1/(4*pi*eps0)  1 A.U. [M*L**3*T**(-4)*C**(-2)]
  V              CELL VOLUME (BOHR**3) [L**3]
  Z_(n,i)        ith COMPONENT OF BORN CHARGE VECTOR IN THE BASIS
                 OF NORMAL MODES ( e*M_E**(-1/2) ) [C*T*M**(-1/2)]
  nu_n           FREQUENCY (HARTREE) [T**(-1)]
  e, M_E         UNITS OF ELECTRON CHARGE AND MASS, RESPECTIVELY
  M, L, T, C     MASS, LENGTH, TIME, CURRENT, RESPECTIVELY

 HHHHHHHHHHHHHHHHHHHHHHHHHHHHHHHHHHHHHHHHHHHHHHHHHHHHHHHHHHHHHHHHHHHHHHHHHHHHHH

 MODE      CARTESIAN AXES SYSTEM

   4       0.00000   -0.00000    0.00000
          -0.00000    2.51818   -0.00000
           0.00000   -0.00000    0.00000

   5       2.51818    0.00000   -0.00000
           0.00000    0.00000   -0.00000
          -0.00000   -0.00000    0.00000

   6       0.00000   -0.00000    0.00000
          -0.00000    0.00000   -0.00000
           0.00000   -0.00000    2.51818

 SUM TENSOR OF THE VIBRATIONAL CONTRIBUTIONS TO THE STATIC DIELECTRIC     TENSOR

           2.51818    0.00000    0.00000
           0.00000    2.51818   -0.00000
           0.00000   -0.00000    2.51818

 INTEGRATED IR INTENSITIES, IN UNITS OF KM/MOL, ARE COMPUTED UNDER THE
 HYPOTHESIS OF ISOTROPIC RESPONSE (I.E. POWDER SAMPLE):

   INTENS_n = 1 / (4 * pi * eps0) * pi * N_AV / 3 / c**2 *
                             * d_n * ( Z_(n,x)**2 + Z_(n,y)**2 + Z_(n,z)**2 )
            = 0.17770712E+07 * d_n * ( Z_(n,x)**2 + Z_(n,y)**2 + Z_(n,z)**2 )

 WHERE:
  1/(4*pi*eps0)  1 A.U. [M*L**3*T**(-4)*C**(-2)]
  N_AV           AVOGADRO'S NUMBER [QM**(-1)]
  c              SPEED OF LIGHT [L*T**(-1)]
  d_n            DEGENERACY OF THE MODE
  Z_(n,x)        xth COMPONENT OF BORN CHARGE VECTOR IN THE BASIS
                 OF NORMAL MODES ( e*M_E**(-1/2) ) [C*T*M**(-1/2)]
  M,L,T,C,QM     MASS, LENGTH, TIME, CURRENT, QUANTITY OF MATTER, RESPECTIVELY

 HHHHHHHHHHHHHHHHHHHHHHHHHHHHHHHHHHHHHHHHHHHHHHHHHHHHHHHHHHHHHHHHHHHHHHHHHHHHHH
 EIGENVALUES (EIGV) OF THE MASS WEIGHTED HESSIAN MATRIX AND HARMONIC TRANSVERSE
 OPTICAL (TO) FREQUENCIES. IRREP LABELS REFER TO SYMMETRY REPRESENTATION
 ANALYSIS; A AND I INDICATE WHETHER THE MODE IS ACTIVE OR INACTIVE,
 RESPECTIVELY, FOR IR AND RAMAN; INTEGRATED IR INTENSITIES IN BRACKETS.

 CONVERSION FACTORS FOR FREQUENCIES:
      1 CM**(-1) =   0.4556335E-05 HARTREE
      1 THZ      =   0.3335641E+02 CM**(-1)

 HHHHHHHHHHHHHHHHHHHHHHHHHHHHHHHHHHHHHHHHHHHHHHHHHHHHHHHHHHHHHHHHHHHHHHHHHHHHHH

    MODES         EIGV          FREQUENCIES     IRREP  IR   INTENS    RAMAN
             (HARTREE**2)   (CM**-1)     (THZ)             (KM/MOL)
    1-   3    0.2416E-22      0.0000    0.0000  (F  )   A (     0.00)   A
    4-   6    0.1040E-05    223.8695    6.7114  (F  )   A (   343.34)   A

 <RAMAN><RAMAN><RAMAN><RAMAN><RAMAN><RAMAN><RAMAN><RAMAN><RAMAN><RAMAN><RAMAN>
 <RAMAN><RAMAN><RAMAN><RAMAN><RAMAN><RAMAN><RAMAN><RAMAN><RAMAN><RAMAN><RAMAN>

 RAMAN INTENSITIES UNDER PLACZECK APPROXIMATION ARE COMPUTED AS:

  DIRECTIONAL (SINGLE CRYSTAL) :

     I_ij(n)= VOLUME*X(n,i,j)**2

  ISOTROPIC (POLYCRYSTALLINE POWDERS, GASES) :

     G_0(n) = 1/3*(SUM_i X(n,i,i))**2
     G_1(n) = 1/2*SUM_i,j (X(n,i,j)+X(n,j,i))**2
     G_2(n) = 1/3*SUM_i,j (X(n,i,i)-X(n,j,j))**2

     I_par(n)  = VOLUME*( 15*G_0(n) + 6*(G_1(n) + G_2(n)) )
     I_perp(n) = VOLUME*9/2*( G_1(n) + G_2(n) )
     I_tot(n)  = I_par(n) + I_perp(n)

  WHERE X(n,i,j) IS THE i,j-th COMPONENT OF THE RAMAN TENSOR
  IN THE BASIS OF NORMAL MODE n

  ALL VALUES ARE NORMALIZED TO THE MOST INTENSE PEAK


  INTENSITIES HAVE BEEN CALCULATED AT 
  TEMPERATURE                  :    298.0 K
  FREQUENCY OF INCOMING LASER  :    514.0 NM


 REFERENCES TO BE QUOTED FOR RAMAN INTENSITIES:

 L.MASCHIO, B.KIRTMAN, M.RERAT, R.ORLANDO and R.DOVESI, JCP 139, 164101 (2013)
 L.MASCHIO, B.KIRTMAN, M.RERAT, R.ORLANDO and R.DOVESI, JCP 139, 164102 (2013)

  --
  POLYCRYSTALLINE ISOTROPIC INTENSITIES (ARBITRARY UNITS)

    MODES    FREQUENCIES           I_tot     I_par    I_perp
  ----------------------------------------------------------------
    4-   6      223.8695 (F  )   1000.00    571.43    428.57

  --
  SINGLE CRYSTAL DIRECTIONAL INTENSITIES (ARBITRARY UNITS)

    MODES    FREQUENCIES          I_xx    I_xy    I_xz    I_yy    I_yz    I_zz
  ----------------------------------------------------------------------------
    4-   6      223.8695 (F  )    0.00 1000.00  999.95    0.00  999.91    0.00

 <RAMAN><RAMAN><RAMAN><RAMAN><RAMAN><RAMAN><RAMAN><RAMAN><RAMAN><RAMAN><RAMAN>
 <RAMAN><RAMAN><RAMAN><RAMAN><RAMAN><RAMAN><RAMAN><RAMAN><RAMAN><RAMAN><RAMAN>


 NORMAL MODES NORMALIZED TO CLASSICAL AMPLITUDES (IN BOHR)

 FREQ(CM**-1)      0.00      0.00      0.00    223.87    223.87    223.87

 AT.   1 ZN X    -0.0834    0.0000    0.0000    0.0000   -0.0684    0.0000
            Y     0.0000   -0.0834    0.0000   -0.0684    0.0000    0.0000
            Z     0.0000    0.0000   -0.0834    0.0000    0.0000   -0.0684
 AT.   2 SE X    -0.0834    0.0000    0.0000    0.0000    0.0547    0.0000
            Y     0.0000   -0.0834    0.0000    0.0547    0.0000    0.0000
            Z     0.0000    0.0000   -0.0834    0.0000    0.0000    0.0547

 *******************************************************************************

 VIBRATIONAL TEMPERATURES (K) [MODE NUMBER;IRREP]

 TO MODES
   322.1 [   4;F  ]   322.1 [   5;F  ]   322.1 [   6;F  ]

 *******************************************************************************

 HARMONIC VIBRATIONAL CONTRIBUTIONS TO THERMODYNAMIC FUNCTIONS AT GIVEN
 TEMPERATURE AND PRESSURE:

 (EL = ELECTRONIC ENERGY
  E0 = ZERO-POINT ENERGY
  ET = THERMAL CONTRIBUTION TO THE VIBRATIONAL ENERGY
  PV = PRESSURE * VOLUME
  TS = TEMPERATURE * ENTROPY)

                          AU/CELL             EV/CELL                 KJ/MOL
 EL            :   -4180.487825983836 -113756.857031878637   -10975869.24034007
 E0            :       0.001530036607       0.041634412734           4.01711055


 *******************************************************************************

 THERMODYNAMIC FUNCTIONS WITH VIBRATIONAL CONTRIBUTIONS

 AT (T =  298.15 K, P =   0.10132500E+00 MPA):

                          AU/CELL             EV/CELL                 KJ/MOL
 ET            :       0.001572795881       0.042797951717           4.12937500
 PV            :       0.000001063812       0.000028947805           0.00279304
 TS            :       0.002747563894       0.074765014526           7.21372799
 ET+PV-TS      :      -0.001173704201      -0.031938115004          -3.08155994
 EL+E0+ET+PV-TS:   -4180.487469651429 -113756.847335580896   -10975868.30478946

 OTHER THERMODYNAMIC FUNCTIONS:

                      mHARTREE/(CELL*K)     mEV/(CELL*K)              J/(MOL*K)
 ENTROPY       :       0.009215374455       0.250763087458          24.19496222
 HEAT CAPACITY :       0.008627973061       0.234779082923          22.65274008

 *******************************************************************************
 TTTTTTTTTTTTTTTTTTTTTTTTTTTTTT END         TELAPSE      775.29 TCPU      763.17
 EEEEEEEEEE TERMINATION  DATE 05 09 2023 TIME 18:25:13.2
