         256 PROCESSORS WORKING

         
 *******************************************************************************
 *                                                                             *
 *                               CRYSTAL23                                     *
 *                      public : 1.0.1 - October 2022                          *
 *                       HTTP://WWW.CRYSTAL.UNITO.IT                           *
 *                                                                             *
 *                              MAIN AUTHORS                                   *
 *                                                                             *
 *  R. DOVESI(1,11), V.R. SAUNDERS(2), C. ROETTI(1,11), R. ORLANDO(1,11),      *
 *  C.M. ZICOVICH-WILSON(1,3), F. PASCALE(4), B. CIVALLERI(1,11),              *
 *  K. DOLL(5), N.M. HARRISON(6), I.J. BUSH(7), Ph. D'ARCO(8),                 *
 *  M. LLUNELL(9), M. CAUSA'(10), Y. NOEL(8), L. MASCHIO(1,11), A. ERBA(1,11)  *
 *  M. RE'RAT(14), S. CASASSA(1,11), B.G. SEARLE(2), J.K. DESMARAIS(1)         *
 *                                                                             *
 *        CONTRIBUTIONS TO THE CODE HAVE ALSO BEEN GIVEN BY                    *
 *                                                                             *
 *  M. FERRABONE(1,11), M. DE LA PIERRE(1,11), M. FERRERO(1,11),               *
 *  J. BAIMA(1,11), E. ALBANESE(1,11), M.F. PEINTINGER(12), R. BAST(13),       *
 *  B. KIRTMAN(15), V. LACIVITA(1,11), R. DEMICHELIS(1,16)                     *
 *  G. BRANDEBURG(17), S. SALUSTRO(1,11), G. SANSONE(1,11)                     *
 *  M.T. RUGGIERO(18), L.E. DAGA(1), L. DONA'(1), A. COSSARD(1)                *
 *                                                                             *
 * (1) THEORETICAL CHEMISTRY GROUP - UNIVERSITA' DI TORINO - TORINO (ITALY)    *
 * (2) SCIENTIFIC COMPUTING DEPARTMENT - STFC DARESBURY (UK)                   *
 * (3) UNIVERSIDAD AUTONOMA DEL ESTADO DE MORELOS - CUERNAVACA (MEXICO)        *
 * (4) UNIVERSITE' DE LORRAINE - NANCY (FRANCE)                                *
 * (5) UNIVERSITAET STUTTGART- STUTTGART (GERMANY)                             *
 * (6) IMPERIAL COLLEGE - LONDON (UK)                                          *
 * (7) SCIENTIFIC COMPUTING DEPARTMENT - STFC RAL (UK)                         *
 * (8) UPMC - SORBONNE UNIVERSITES - PARIS (FRANCE)                            *
 * (9) UNIVERSIDAD DE BARCELONA - BARCELONA (SPAIN)                            *
 *(10) UNIVERSITA' DI NAPOLI "FEDERICO II" - NAPOLI (ITALY)                    *
 *(11) NIS - NANOSTRUCTURED INTERFACES AND SURFACES - TORINO (ITALY)           *
 *(12) MPI FUER CHEMISCHE ENERGIEKONVERSION - MUELHEIM AN DER RUHR (GERMANY)   *
 *(13) UNIVERSITY OF TROMSO - TROMSO (NORWAY)                                  *
 *(14) UNIVERSITE' DE PAU ET DES PAYS DE L'ADOUR - PAU (FRANCE)                *
 *(15) UNIVERSITY OF CALIFORNIA SANTA BARBARA - SANTA BARBARA (USA)            *
 *(16) CURTIN UNIVERSITY - PERTH (AUSTRALIA)                                   *
 *(17) UNIVERSITY COLLEGE LONDON - LONDON (UK)                                 *
 *(18) UNIVERSITY OF VERMONT - BURLINGTON (USA)                                *
 *                                                                             *
 *******************************************************************************
 EEEEEEEEEE STARTING  DATE 05 09 2023 TIME 18:08:32.1
 ICSD_CollCode40428.cif                                                          

 CRYSTAL CALCULATION
 (INPUT ACCORDING TO THE INTERNATIONAL TABLES FOR X-RAY CRYSTALLOGRAPHY)
 CRYSTAL FAMILY                       :  TETRAGONAL  
 CRYSTAL CLASS  (GROTH - 1921)        :  TETRAGONAL TRAPEZOHEDRAL             

 SPACE GROUP (NONCENTROSYMMETRIC)     :  P 41 21 2       

 LATTICE PARAMETERS  (ANGSTROMS AND DEGREES) - CONVENTIONAL CELL
        A           B           C        ALPHA        BETA       GAMMA
     5.01543     5.01543    14.53975    90.00000    90.00000    90.00000


 NUMBER OF IRREDUCIBLE ATOMS IN THE CONVENTIONAL CELL:    3

 INPUT COORDINATES

 ATOM AT. N.              COORDINATES
   1  30     7.150000000000E-01  2.850000000000E-01  7.500000000000E-01
   2  15     5.720000000000E-01  5.250000000000E-01  3.830000000000E-01
   3  15     1.690000000000E-01  4.070000000000E-01  5.490000000000E-01

 *******************************************************************************

 << INFORMATION >>: FROM NOW ON, ALL COORDINATES REFER TO THE PRIMITIVE CELL

 *******************************************************************************

 LATTICE PARAMETERS  (ANGSTROMS AND DEGREES) - PRIMITIVE CELL
       A          B          C        ALPHA      BETA     GAMMA        VOLUME
    5.01543    5.01543   14.53975    90.00000  90.00000  90.00000    365.740695

 COORDINATES OF THE EQUIVALENT ATOMS (FRACTIONAL UNITS)

 N. ATOM EQUIV AT. N.          X                  Y                  Z

   1   1   1   30 ZN   -2.85000000000E-01  2.85000000000E-01 -2.50000000000E-01
   2   1   2   30 ZN    2.85000000000E-01 -2.85000000000E-01  2.50000000000E-01
   3   1   3   30 ZN    2.15000000000E-01  2.15000000000E-01  0.00000000000E+00
   4   1   4   30 ZN   -2.15000000000E-01 -2.15000000000E-01  5.00000000000E-01

   5   2   1   15 P    -4.28000000000E-01 -4.75000000000E-01  3.83000000000E-01
   6   2   2   15 P     4.28000000000E-01  4.75000000000E-01 -1.17000000000E-01
   7   2   3   15 P     7.20000000000E-02 -2.50000000000E-02  3.67000000000E-01
   8   2   4   15 P    -7.20000000000E-02  2.50000000000E-02 -1.33000000000E-01
   9   2   5   15 P     4.75000000000E-01  4.28000000000E-01  1.17000000000E-01
  10   2   6   15 P    -4.75000000000E-01 -4.28000000000E-01 -3.83000000000E-01
  11   2   7   15 P     2.50000000000E-02 -7.20000000000E-02  1.33000000000E-01
  12   2   8   15 P    -2.50000000000E-02  7.20000000000E-02 -3.67000000000E-01

  13   3   1   15 P     1.69000000000E-01  4.07000000000E-01 -4.51000000000E-01
  14   3   2   15 P    -1.69000000000E-01 -4.07000000000E-01  4.90000000000E-02
  15   3   3   15 P    -3.31000000000E-01  9.30000000000E-02  2.01000000000E-01
  16   3   4   15 P     3.31000000000E-01 -9.30000000000E-02 -2.99000000000E-01
  17   3   5   15 P    -4.07000000000E-01 -1.69000000000E-01 -4.90000000000E-02
  18   3   6   15 P     4.07000000000E-01  1.69000000000E-01  4.51000000000E-01
  19   3   7   15 P    -9.30000000000E-02  3.31000000000E-01  2.99000000000E-01
  20   3   8   15 P     9.30000000000E-02 -3.31000000000E-01 -2.01000000000E-01

 NUMBER OF SYMMETRY OPERATORS         :    8
 *******************************************************************************
 * GEOMETRY EDITING - INPUT COORDINATES ARE GIVEN IN ANGSTROM         
 *******************************************************************************

 GEOMETRY NOW FULLY CONSISTENT WITH THE GROUP

 FRQFRQFRQFRQFRQFRQFRQFRQFRQFRQFRQFRQFRQFRQFRQFRQFRQFRQFRQFRQFRQFRQFRQFRQFRQFRQ

                       FREQUENCY CALCULATION

 OPTIMIZATION PERFORMED BEFORE FREQUENCIES CALCULATION
 *******************************************************************************
 INFORMATION **** NEW DEFAULT **** FINALRUN 4 FOR GEOMETRY OPTIMIZATIONS
 INFORMATION **** NEW DEFAULT **** OPTGEOM OPTIMIZES ATOMIC COORDINATES ONLY
 INFORMATION **** NEW DEFAULT **** TOL. ON ATOMIC DISP TO REDEFINE REF. GEOMETRY: 0.8 Angs
 INFORMATION **** NEW DEFAULT **** N POINTS TO REDEFINE REF. GEOMETRY: N OF OPT DEGS OF FREEDOM
 INFORMATION **** NEW DEFAULT **** TOL. ON ENERGY TO REDEFINE REF. GEOMETRY: 10**-3*(5*N. ATOMS)
 INFORMATION **** FULLOPTG **** FULL OPTIMIZATION (ATOMS AND CELL PARAMETERS)

 IMPORTANT INFORMATION:
 THE COORDINATE SYSTEM ADOPTED IN THE OPTIMIZATION IS NOT IN
 GENERAL HOMOGENEOUS UNITS. FOR THIS REASON THE GRADIENT AND 
 HESSIAN MATRIX IN TERMS OF THIS SYSTEM ARE GIVEN WITHOUT
 UNITS. FOR MORE DETAILS SEE THE MANUAL.

 *******************************************************************************
 COMBINED CELL/ATOM OPTIMIZATION CONTROL

 INITIAL TRUST RADIUS         0.50000 MAXIMUM TRUST RADIUS               0.50000
 MAXIMUM GRADIENT COMPONENT   0.00005 MAXIMUM DISPLACEMENT COMPONENT     0.00018
 R.M.S. OF GRADIENT COMPONENT 0.00003 R.M.S. OF DISPLACEMENT COMPONENTS  0.00012
 THRESHOLD ON ENERGY CHANGE 0.100E-06 EXTRAPOLATING POLYNOMIAL ORDER           2
 MAXIMUM ALLOWED NUMBER OF STEPS   -1 SORTING OF ENERGY POINTS:               NO
 ANALYTICAL  GRADIENT                 HESSIAN UPDATING                      BFGS
 STEP SIZE NUMERICAL GRADIENT 0.00100
 INITIAL HESSIAN MATRIX: SCHLEGEL MODEL 2
 *******************************************************************************

 INFORMATION **** INPFREQ **** IR INTENSITIES EVALUATED THROUGH CPHF APPROACH
 INFORMATION **** INPFREQ **** NEW DEFAULT - IMPOSING ECKART CONDITIONS TO THE HESSIAN

 GCALCO - MAX INDICES DIRECT LATTICE VECTOR    21    21     7
 NO.OF VECTORS CREATED 6999 STARS  491 RMAX   160.11692 BOHR

 GEOMETRY FOR WAVE FUNCTION - DIMENSIONALITY OF THE SYSTEM    3
 (NON PERIODIC DIRECTION: LATTICE PARAMETER FORMALLY SET TO 500)
 *******************************************************************************
 LATTICE PARAMETERS (ANGSTROMS AND DEGREES) - BOHR = 0.5291772083 ANGSTROM
 PRIMITIVE CELL - CENTRING CODE 1/0 VOLUME=   365.740695 - DENSITY  3.411 g/cm^3
         A              B              C           ALPHA      BETA       GAMMA 
     5.01543000     5.01543000    14.53975000    90.000000  90.000000  90.000000
 *******************************************************************************
 ATOMS IN THE ASYMMETRIC UNIT    3 - ATOMS IN THE UNIT CELL:   20
     ATOM                 X/A                 Y/B                 Z/C    
 *******************************************************************************
      1 T  30 ZN   -2.850000000000E-01  2.850000000000E-01 -2.500000000000E-01
      2 F  30 ZN    2.850000000000E-01 -2.850000000000E-01  2.500000000000E-01
      3 F  30 ZN    2.150000000000E-01  2.150000000000E-01  0.000000000000E+00
      4 F  30 ZN   -2.150000000000E-01 -2.150000000000E-01 -5.000000000000E-01
      5 T  15 P    -4.280000000000E-01 -4.750000000000E-01  3.830000000000E-01
      6 F  15 P     4.280000000000E-01  4.750000000000E-01 -1.170000000000E-01
      7 F  15 P     7.200000000000E-02 -2.500000000000E-02  3.670000000000E-01
      8 F  15 P    -7.200000000000E-02  2.500000000000E-02 -1.330000000000E-01
      9 F  15 P     4.750000000000E-01  4.280000000000E-01  1.170000000000E-01
     10 F  15 P    -4.750000000000E-01 -4.280000000000E-01 -3.830000000000E-01
     11 F  15 P     2.500000000000E-02 -7.200000000000E-02  1.330000000000E-01
     12 F  15 P    -2.500000000000E-02  7.200000000000E-02 -3.670000000000E-01
     13 T  15 P     1.690000000000E-01  4.070000000000E-01 -4.510000000000E-01
     14 F  15 P    -1.690000000000E-01 -4.070000000000E-01  4.900000000000E-02
     15 F  15 P    -3.310000000000E-01  9.300000000000E-02  2.010000000000E-01
     16 F  15 P     3.310000000000E-01 -9.300000000000E-02 -2.990000000000E-01
     17 F  15 P    -4.070000000000E-01 -1.690000000000E-01 -4.900000000000E-02
     18 F  15 P     4.070000000000E-01  1.690000000000E-01  4.510000000000E-01
     19 F  15 P    -9.300000000000E-02  3.310000000000E-01  2.990000000000E-01
     20 F  15 P     9.300000000000E-02 -3.310000000000E-01 -2.010000000000E-01

 T = ATOM BELONGING TO THE ASYMMETRIC UNIT

 ****    8 SYMMOPS - TRANSLATORS IN FRACTIONAL UNITS
 **** MATRICES AND TRANSLATORS IN THE CRYSTALLOGRAPHIC REFERENCE FRAME
   V INV                    ROTATION MATRICES                   TRANSLATORS
   1   1  1.00  0.00  0.00  0.00  1.00  0.00  0.00  0.00  1.00  0.00  0.00  0.00
   2   2 -1.00  0.00  0.00  0.00 -1.00  0.00  0.00  0.00  1.00  0.00  0.00  0.50
   3   3  1.00  0.00  0.00  0.00 -1.00  0.00  0.00  0.00 -1.00  0.50  0.50  0.75
   4   4 -1.00  0.00  0.00  0.00  1.00  0.00  0.00  0.00 -1.00  0.50  0.50  0.25
   5   5  0.00 -1.00  0.00 -1.00  0.00  0.00  0.00  0.00 -1.00  0.00  0.00  0.50
   6   6  0.00  1.00  0.00  1.00  0.00  0.00  0.00  0.00 -1.00  0.00  0.00  0.00
   7   8  0.00  1.00  0.00 -1.00  0.00  0.00  0.00  0.00  1.00  0.50  0.50  0.75
   8   7  0.00 -1.00  0.00  1.00  0.00  0.00  0.00  0.00  1.00  0.50  0.50  0.25

 DIRECT LATTICE VECTORS CARTESIAN COMPONENTS (ANGSTROM)
          X                    Y                    Z
   0.501543000000E+01   0.000000000000E+00   0.000000000000E+00
   0.000000000000E+00   0.501543000000E+01   0.000000000000E+00
   0.000000000000E+00   0.000000000000E+00   0.145397500000E+02


 CARTESIAN COORDINATES - PRIMITIVE CELL
 *******************************************************************************
 *      ATOM          X(ANGSTROM)         Y(ANGSTROM)         Z(ANGSTROM)
 *******************************************************************************
    1    30 ZN   -1.429397550000E+00  1.429397550000E+00 -3.634937500000E+00
    2    30 ZN    1.429397550000E+00 -1.429397550000E+00  3.634937500000E+00
    3    30 ZN    1.078317450000E+00  1.078317450000E+00  0.000000000000E+00
    4    30 ZN   -1.078317450000E+00 -1.078317450000E+00  7.269875000000E+00
    5    15 P    -2.146604040000E+00 -2.382329250000E+00  5.568724250000E+00
    6    15 P     2.146604040000E+00  2.382329250000E+00 -1.701150750000E+00
    7    15 P     3.611109600000E-01 -1.253857500000E-01  5.336088250000E+00
    8    15 P    -3.611109600000E-01  1.253857500000E-01 -1.933786750000E+00
    9    15 P     2.382329250000E+00  2.146604040000E+00  1.701150750000E+00
   10    15 P    -2.382329250000E+00 -2.146604040000E+00 -5.568724250000E+00
   11    15 P     1.253857500000E-01 -3.611109600000E-01  1.933786750000E+00
   12    15 P    -1.253857500000E-01  3.611109600000E-01 -5.336088250000E+00
   13    15 P     8.476076700000E-01  2.041280010000E+00 -6.557427250000E+00
   14    15 P    -8.476076700000E-01 -2.041280010000E+00  7.124477500000E-01
   15    15 P    -1.660107330000E+00  4.664349900000E-01  2.922489750000E+00
   16    15 P     1.660107330000E+00 -4.664349900000E-01 -4.347385250000E+00
   17    15 P    -2.041280010000E+00 -8.476076700000E-01 -7.124477500000E-01
   18    15 P     2.041280010000E+00  8.476076700000E-01  6.557427250000E+00
   19    15 P    -4.664349900000E-01  1.660107330000E+00  4.347385250000E+00
   20    15 P     4.664349900000E-01 -1.660107330000E+00 -2.922489750000E+00

 *******************************************************************************
 LOCAL ATOMIC FUNCTIONS BASIS SET
 *******************************************************************************
   ATOM   X(AU)   Y(AU)   Z(AU)  N. TYPE  EXPONENT  S COEF   P COEF   D/F/G COEF
 *******************************************************************************
   1 ZN  -2.701   2.701  -6.869
                                  1 S  
                                         4.059E+05 2.244E-04 0.000E+00 0.000E+00
                                         6.085E+04 1.740E-03 0.000E+00 0.000E+00
                                         1.385E+04 9.051E-03 0.000E+00 0.000E+00
                                         3.920E+03 3.682E-02 0.000E+00 0.000E+00
                                         1.276E+03 1.200E-01 0.000E+00 0.000E+00
                                         4.587E+02 2.858E-01 0.000E+00 0.000E+00
                                         1.783E+02 4.109E-01 0.000E+00 0.000E+00
                                         7.061E+01 2.182E-01 0.000E+00 0.000E+00
                                  2 S  
                                         4.439E+02-2.493E-02 0.000E+00 0.000E+00
                                         1.376E+02-1.182E-01 0.000E+00 0.000E+00
                                         2.227E+01 5.537E-01 0.000E+00 0.000E+00
                                         9.522E+00 5.263E-01 0.000E+00 0.000E+00
                                  3 S  
                                         1.487E+01-2.293E-01 0.000E+00 0.000E+00
                                         2.465E+00 7.114E-01 0.000E+00 0.000E+00
                                  4 S  
                                         1.011E+00 1.000E+00 0.000E+00 0.000E+00
                                  5 S  
                                         3.230E-01 1.000E+00 0.000E+00 0.000E+00
                                  6 S  
                                         1.517E-01 1.000E+00 0.000E+00 0.000E+00
                           7-     9 P  
                                         2.205E+03 0.000E+00 2.336E-03 0.000E+00
                                         5.224E+02 0.000E+00 1.903E-02 0.000E+00
                                         1.677E+02 0.000E+00 8.996E-02 0.000E+00
                                         6.267E+01 0.000E+00 2.611E-01 0.000E+00
                                         2.511E+01 0.000E+00 4.235E-01 0.000E+00
                                         1.023E+01 0.000E+00 2.462E-01 0.000E+00
                          10-    12 P  
                                         4.071E+01 0.000E+00-3.003E-02 0.000E+00
                                         5.625E+00 0.000E+00 5.558E-01 0.000E+00
                                         2.228E+00 0.000E+00 9.558E-01 0.000E+00
                          13-    15 P  
                                         1.160E+00 0.000E+00 1.000E+00 0.000E+00
                          16-    18 P  
                                         2.625E-01 0.000E+00 1.000E+00 0.000E+00
                          19-    23 D  
                                         8.855E+01 0.000E+00 0.000E+00 1.273E-02
                                         2.572E+01 0.000E+00 0.000E+00 7.939E-02
                                         9.128E+00 0.000E+00 0.000E+00 2.449E-01
                                         3.431E+00 0.000E+00 0.000E+00 4.039E-01
                          24-    28 D  
                                         1.186E+00 0.000E+00 0.000E+00 1.000E+00
                          29-    33 D  
                                         3.309E-01 0.000E+00 0.000E+00 1.000E+00
                          34-    40 F  
                                         2.614E+00 0.000E+00 0.000E+00 1.000E+00
   2 ZN   2.701  -2.701   6.869
   3 ZN   2.038   2.038   0.000
   4 ZN  -2.038  -2.038  13.738
   5 P   -4.056  -4.502  10.523
                                161 S  
                                         5.243E+04 5.521E-04 0.000E+00 0.000E+00
                                         7.863E+03 4.268E-03 0.000E+00 0.000E+00
                                         1.790E+03 2.193E-02 0.000E+00 0.000E+00
                                         5.063E+02 8.567E-02 0.000E+00 0.000E+00
                                         1.646E+02 2.484E-01 0.000E+00 0.000E+00
                                         5.839E+01 4.634E-01 0.000E+00 0.000E+00
                                         2.164E+01 3.535E-01 0.000E+00 0.000E+00
                                162 S  
                                         9.901E+01 2.190E-02 0.000E+00 0.000E+00
                                         3.055E+01 9.565E-02 0.000E+00 0.000E+00
                                         5.454E+00-2.945E-01 0.000E+00 0.000E+00
                                163 S  
                                         2.650E+00 1.329E+00 0.000E+00 0.000E+00
                                         1.273E+00 6.611E-01 0.000E+00 0.000E+00
                                164 S  
                                         3.072E-01 1.000E+00 0.000E+00 0.000E+00
                                165 S  
                                         1.203E-01 1.000E+00 0.000E+00 0.000E+00
                         166-   168 P  
                                         4.723E+02 0.000E+00 2.571E-03 0.000E+00
                                         1.116E+02 0.000E+00 2.025E-02 0.000E+00
                                         3.545E+01 0.000E+00 9.158E-02 0.000E+00
                                         1.299E+01 0.000E+00 2.575E-01 0.000E+00
                                         5.049E+00 0.000E+00 4.286E-01 0.000E+00
                         169-   171 P  
                                         1.889E+00 0.000E+00 1.000E+00 0.000E+00
                         172-   174 P  
                                         4.424E-01 0.000E+00 1.000E+00 0.000E+00
                         175-   177 P  
                                         1.573E-01 0.000E+00 1.000E+00 0.000E+00
                         178-   182 D  
                                         5.061E-01 0.000E+00 0.000E+00 1.000E+00
   6 P    4.056   4.502  -3.215
   7 P    0.682  -0.237  10.084
   8 P   -0.682   0.237  -3.654
   9 P    4.502   4.056   3.215
  10 P   -4.502  -4.056 -10.523
  11 P    0.237  -0.682   3.654
  12 P   -0.237   0.682 -10.084
  13 P    1.602   3.857 -12.392
  14 P   -1.602  -3.857   1.346
  15 P   -3.137   0.881   5.523
  16 P    3.137  -0.881  -8.215
  17 P   -3.857  -1.602  -1.346
  18 P    3.857   1.602  12.392
  19 P   -0.881   3.137   8.215
  20 P    0.881  -3.137  -5.523
 INFORMATION **** SET_MPP **** PCRYSTAL CALCULATION
 INFORMATION **** READM2 **** NEW DEFAULT: FOCK/KS MATRIX MIXING SET TO 30 %
 INFORMATION **** READM2 **** NEW DEFAULT: FULL DIRECT SCF MODE
 INFORMATION **** READM2 **** NEW DEFAULT: COULOMB BIPOLAR BUFFER SET TO 32 Mb
 INFORMATION **** READM2 **** NEW DEFAULT: EXCHANGE BIPOLAR BUFFER SET TO 32 Mb

 *******************************************************************************
 NEW DEFAULT: DFT INTEGRATION GRID INCREASED TO XLGRID
 NEW DEFAULT: DIIS ACCELERATOR ACTIVE
 USE KEYWORD NODIIS TO TURN IT OFF
 *******************************************************************************

 INFORMATION **** RDDFTP **** MAX N. OF POINTS ALLOWED IN A BATCH FOR NUMERICAL INTEGRATION         200
 INFORMATION **** TOLINTEG **** COULOMB AND EXCHANGE SERIES TOLERANCES MODIFIED
 INFORMATION **** TOLDEE **** SCF TOL ON TOTAL ENERGY SET TO          11
 INFORMATION **** EXCHSIZE **** EXCHANGE BIPOLAR BUFFER SIZE SET TO    12012489
 INFORMATION **** MAXCYCLE **** MAX NUMBER OF SCF CYCLES SET TO         150
 *******************************************************************************
 N. OF ATOMS PER CELL        20  COULOMB OVERLAP TOL         (T1) 10**   -7
 NUMBER OF SHELLS           216  COULOMB PENETRATION TOL     (T2) 10**   -7
 NUMBER OF AO               512  EXCHANGE OVERLAP TOL        (T3) 10**   -7
 N. OF ELECTRONS PER CELL   360  EXCHANGE PSEUDO OVP (F(G))  (T4) 10**   -9
 CORE ELECTRONS PER CELL    232  EXCHANGE PSEUDO OVP (P(G))  (T5) 10**  -30
 N. OF SYMMETRY OPERATORS     8  POLE ORDER IN MONO ZONE                  4
 *******************************************************************************
 TYPE OF CALCULATION :  RESTRICTED CLOSED SHELL
 KOHN-SHAM HAMILTONIAN

 (EXCHANGE)[CORRELATION] FUNCTIONAL:(PERDEW-BURKE-ERNZERHOF)[PERDEW-BURKE-ERNZERHOF]


 HYBRID EXCHANGE - PERCENTAGE OF FOCK EXCHANGE    25.0000

 CAPPA:IS1  8;IS2  8;IS3  8; K PTS MONK NET  75; SYMMOPS:K SPACE  16;G SPACE   8

 *******************************************************************************
 MAX NUMBER OF SCF CYCLES     150  CONVERGENCE ON DELTAP        10**-21
 WEIGHT OF F(I) IN F(I+1)      30% CONVERGENCE ON ENERGY        10**-11
 SHRINK. FACT.(MONKH.)    8  8  8  NUMBER OF K POINTS IN THE IBZ     75
 SHRINKING FACTOR(GILAT NET)    8  NUMBER OF K POINTS(GILAT NET)     75
 *******************************************************************************
 *** K POINTS COORDINATES (OBLIQUE COORDINATES IN UNITS OF IS =  8)
   1-R(  0  0  0)   2-C(  1  0  0)   3-C(  2  0  0)   4-C(  3  0  0)
   5-R(  4  0  0)   6-C(  1  1  0)   7-C(  2  1  0)   8-C(  3  1  0)
   9-C(  4  1  0)  10-C(  2  2  0)  11-C(  3  2  0)  12-C(  4  2  0)
  13-C(  3  3  0)  14-C(  4  3  0)  15-R(  4  4  0)  16-C(  0  0  1)
  17-C(  1  0  1)  18-C(  2  0  1)  19-C(  3  0  1)  20-C(  4  0  1)
  21-C(  1  1  1)  22-C(  2  1  1)  23-C(  3  1  1)  24-C(  4  1  1)
  25-C(  2  2  1)  26-C(  3  2  1)  27-C(  4  2  1)  28-C(  3  3  1)
  29-C(  4  3  1)  30-C(  4  4  1)  31-C(  0  0  2)  32-C(  1  0  2)
  33-C(  2  0  2)  34-C(  3  0  2)  35-C(  4  0  2)  36-C(  1  1  2)
  37-C(  2  1  2)  38-C(  3  1  2)  39-C(  4  1  2)  40-C(  2  2  2)
  41-C(  3  2  2)  42-C(  4  2  2)  43-C(  3  3  2)  44-C(  4  3  2)
  45-C(  4  4  2)  46-C(  0  0  3)  47-C(  1  0  3)  48-C(  2  0  3)
  49-C(  3  0  3)  50-C(  4  0  3)  51-C(  1  1  3)  52-C(  2  1  3)
  53-C(  3  1  3)  54-C(  4  1  3)  55-C(  2  2  3)  56-C(  3  2  3)
  57-C(  4  2  3)  58-C(  3  3  3)  59-C(  4  3  3)  60-C(  4  4  3)
  61-R(  0  0  4)  62-C(  1  0  4)  63-C(  2  0  4)  64-C(  3  0  4)
  65-R(  4  0  4)  66-C(  1  1  4)  67-C(  2  1  4)  68-C(  3  1  4)
  69-C(  4  1  4)  70-C(  2  2  4)  71-C(  3  2  4)  72-C(  4  2  4)
  73-C(  3  3  4)  74-C(  4  3  4)  75-R(  4  4  4)

 DIRECT LATTICE VECTORS COMPON. (A.U.)     RECIP. LATTICE VECTORS COMPON. (A.U.) 
        X            Y            Z              X            Y            Z
    9.4777891    0.0000000    0.0000000      0.6629379    0.0000000    0.0000000
    0.0000000    9.4777891    0.0000000      0.0000000    0.6629379    0.0000000
    0.0000000    0.0000000   27.4761456      0.0000000    0.0000000    0.2286778

 DISK SPACE FOR EIGENVECTORS (FTN 10)    37748736 REALS

 SYMMETRY ADAPTION OF THE BLOCH FUNCTIONS ENABLED
 TTTTTTTTTTTTTTTTTTTTTTTTTTTTTT gordsh1     TELAPSE        4.18 TCPU        1.71

 MATRIX SIZE: P(G) 2408592, F(G)  191808, P(G) IRR  156669, F(G) IRR   25227
 MAX G-VECTOR INDEX FOR 1- AND 2-ELECTRON INTEGRALS 341

 TTTTTTTTTTTTTTTTTTTTTTTTTTTTTT INPUT       TELAPSE        4.18 TCPU        1.72

 NEIGHBORS OF THE NON-EQUIVALENT ATOMS

 N = NUMBER OF NEIGHBORS AT DISTANCE R
    ATOM  N     R/ANG      R/AU   NEIGHBORS (ATOM LABELS AND CELL INDICES)
   1 ZN   2     2.3949     4.5257    8 P    0 0 0   12 P    0 0 0
   1 ZN   2     2.5922     4.8986    6 P   -1 0 0   10 P    0 1 0
   1 ZN   2     2.7948     5.2814   16 P   -1 0 0   20 P    0 1 0
   1 ZN   2     3.6942     6.9809   16 P    0 0 0   20 P    0 0 0
   1 ZN   2     3.7348     7.0577   16 P   -1 1 0   20 P   -1 1 0
   1 ZN   2     3.7550     7.0959   13 P    0 0 0   17 P    0 0 0

   5 P    1     2.2024     4.1618   18 P   -1-1 0
   5 P    1     2.2938     4.3346   19 P    0-1 0
   5 P    1     2.3949     4.5257    4 ZN   0 0 0
   5 P    1     2.5922     4.8986    2 ZN  -1 0 0
   5 P    1     3.2033     6.0533   13 P   -1-1 1
   5 P    2     3.3818     6.3907    7 P    0 0 0    7 P   -1 0 0

  13 P    1     2.2024     4.1618   10 P    1 1 0
  13 P    1     2.2091     4.1746   18 P    0 0-1
  13 P    1     2.2938     4.3346   12 P    0 0 0
  13 P    1     2.7948     5.2814    4 ZN   0 1-1
  13 P    1     3.2033     6.0533    5 P    1 1-1
  13 P    2     3.4399     6.5005   16 P    0 0 0   16 P    0 1 0


 SYMMETRY ALLOWED ELASTIC DISTORTION 1
  0.5773503  0.0000000  0.0000000
  0.0000000  0.5773503  0.0000000
  0.0000000  0.0000000  0.5773503

 SYMMETRY ALLOWED ELASTIC DISTORTION 2
  0.4082483  0.0000000  0.0000000
  0.0000000  0.4082483  0.0000000
  0.0000000  0.0000000 -0.8164966

 SYMMETRY ALLOWED INTERNAL DEGREE(S) OF FREEDOM:   7
 TTTTTTTTTTTTTTTTTTTTTTTTTTTTTT SYMM        TELAPSE        4.22 TCPU        1.76
 TTTTTTTTTTTTTTTTTTTTTTTTTTTTTT INT_SCREEN  TELAPSE        4.24 TCPU        1.77

 *******************************************************************************
 *                             OPTIMIZATION STARTS                             *
 *******************************************************************************
 RECLASIFICATION OF INDICES FOR INTEGRAL CALC ACCORDING TO DIFFERENT CRITERIA:
           FIXDELTE                  FIXDELTX              FIXDELTN
          0.10000000               0.80000000                 10
 *******************************************************************************

 *******************************************************************************
 COORDINATE AND CELL OPTIMIZATION - POINT    1

 DFT PARAMETERS

     ATOM       ELECTRONS   NET CHARGE   R(ANGSTROM)
   1  30  ZN     30.0000      0.0000     1.37000000
   5  15  P      15.0000      0.0000     1.10000000

 SIZE OF GRID=     126272
 TTTTTTTTTTTTTTTTTTTTTTTTTTTTTT MAKE_GRID2  TELAPSE        8.61 TCPU        6.12
 BECKE WEIGHT FUNCTION
 RADSAFE =     2.00
 TOLERANCES - DENSITY:10**- 6; POTENTIAL:10**- 9; GRID WGT:10**-14

 RADIAL INTEGRATION  - INTERVALS (POINTS,UPPER LIMIT):            1( 99,  4.0*R)

 ANGULAR INTEGRATION - INTERVALS (ACCURACY LEVEL [N. POINTS] UPPER LIMIT):
  1(  6[ 146]   0.2)  2( 11[ 302]   0.5)  3( 14[ 590]   0.9)  4( 18[1454]   3.5)
  5( 14[ 590]9999.0)
 TTTTTTTTTTTTTTTTTTTTTTTTTTTTTT INT_CALC    TELAPSE        8.64 TCPU        6.15

 *******************************************************************************
 ICSD_CollCode40428.cif                                                          
 CRYSTAL - SCF - TYPE OF CALCULATION :  RESTRICTED CLOSED SHELL
 *******************************************************************************

 CAPPA:IS1  8;IS2  8;IS3  8; K PTS MONK NET  75; SYMMOPS:K SPACE  16;G SPACE   8

 TTTTTTTTTTTTTTTTTTTTTTTTTTTTTT SDIK        TELAPSE        8.72 TCPU        6.23

 AAAAAAAAAAAAAAAAAAAAAAAAAAAAAAAAAAAAAAAAAAAAAAAAAAAAAAAAAAAAAAAAAAAAAAAAAAAAAAA
         ATOMIC WAVEFUNCTION(S)


 NUCLEAR CHARGE 30.0  SYMMETRY SPECIES            S    P    D
 N. ELECTRONS   30.0  NUMBER OF PRIMITIVE GTOS   17   11    6
                      NUMBER OF CONTRACTED GTOS   6    4    3
                      NUMBER OF CLOSED SHELLS     4    2    1
                      OPEN SHELL OCCUPATION       0    0    0

  ZNUC  SCFIT    TOTAL HF ENERGY   KINETIC ENERGY   VIRIAL THEOREM             ACCURACY
  30.0    18    -1.777712574E+03  1.776653869E+03 -2.000595898E+00  2.8E-06

 NUCLEAR CHARGE 15.0  SYMMETRY SPECIES            S    P
 N. ELECTRONS   15.0  NUMBER OF PRIMITIVE GTOS   14    8
                      NUMBER OF CONTRACTED GTOS   5    4
                      NUMBER OF CLOSED SHELLS     3    1
                      OPEN SHELL OCCUPATION       0    3

  ZNUC  SCFIT    TOTAL HF ENERGY   KINETIC ENERGY   VIRIAL THEOREM             ACCURACY
  15.0    12    -3.406923858E+02  3.409761491E+02 -1.999167791E+00  1.2E-06

 AAAAAAAAAAAAAAAAAAAAAAAAAAAAAAAAAAAAAAAAAAAAAAAAAAAAAAAAAAAAAAAAAAAAAAAAAAAAAAA

 TTTTTTTTTTTTTTTTTTTTTTTTTTTTTT MOQGAD      TELAPSE        8.73 TCPU        6.24
 TTTTTTTTTTTTTTTTTTTTTTTTTTTTTT SHELLXN     TELAPSE       12.20 TCPU        9.69
 TTTTTTTTTTTTTTTTTTTTTTTTTTTTTT MONMO3      TELAPSE       12.21 TCPU        9.70
 NUMERICALLY INTEGRATED DENSITY    360.0000455693
 TTTTTTTTTTTTTTTTTTTTTTTTTTTTTT NUMDFT      TELAPSE       12.36 TCPU        9.85
 CYC   0 ETOT(AU) -1.257943339056E+04 DETOT -1.26E+04 tst  0.00E+00 PX  1.00E+00
 TTTTTTTTTTTTTTTTTTTTTTTTTTTTTT DIIS        TELAPSE       12.38 TCPU        9.87
 TTTTTTTTTTTTTTTTTTTTTTTTTTTTTT FDIK        TELAPSE       12.70 TCPU       10.18
 INSULATING STATE
 TOP OF VALENCE BANDS -    BAND    180; K   13; EIG -1.4235252E-01 AU
 TOP OF VALENCE BANDS -    BAND    180; K    1; EIG -1.4829253E-01 AU
 BOTTOM OF VIRTUAL BANDS - BAND    181; K   46; EIG -1.0118413E-01 AU
 INDIRECT ENERGY BAND GAP:   1.1202 eV
 BOTTOM OF VIRTUAL BANDS - BAND    181; K    1; EIG -9.6812963E-02 AU
 TTTTTTTTTTTTTTTTTTTTTTTTTTTTTT PDIG        TELAPSE       12.87 TCPU       10.36
 TTTTTTTTTTTTTTTTTTTTTTTTTTTTTT MOQGAD      TELAPSE       12.88 TCPU       10.36
 TTTTTTTTTTTTTTTTTTTTTTTTTTTTTT SHELLXN     TELAPSE       16.38 TCPU       13.84
 TTTTTTTTTTTTTTTTTTTTTTTTTTTTTT MONMO3      TELAPSE       16.40 TCPU       13.86
 NUMERICALLY INTEGRATED DENSITY    360.0000382008
 TTTTTTTTTTTTTTTTTTTTTTTTTTTTTT NUMDFT      TELAPSE       16.54 TCPU       14.00
 CYC   1 ETOT(AU) -1.257647111110E+04 DETOT  2.96E+00 tst  0.00E+00 PX  1.00E+00
 TTTTTTTTTTTTTTTTTTTTTTTTTTTTTT DIIS        TELAPSE       16.55 TCPU       14.01
 DIIS TEST: 0.12250E+01 AT SCF   CYCLE   1 - MIX   30 %
 TTTTTTTTTTTTTTTTTTTTTTTTTTTTTT FDIK        TELAPSE       16.87 TCPU       14.32
 INSULATING STATE
 TOP OF VALENCE BANDS -    BAND    180; K   13; EIG -1.4712803E-01 AU
 TOP OF VALENCE BANDS -    BAND    180; K    1; EIG -1.5032378E-01 AU
 BOTTOM OF VIRTUAL BANDS - BAND    181; K   31; EIG -8.1687931E-02 AU
 INDIRECT ENERGY BAND GAP:   1.7807 eV
 BOTTOM OF VIRTUAL BANDS - BAND    181; K    1; EIG -8.1092353E-02 AU
 TTTTTTTTTTTTTTTTTTTTTTTTTTTTTT PDIG        TELAPSE       17.04 TCPU       14.50
 TTTTTTTTTTTTTTTTTTTTTTTTTTTTTT MOQGAD      TELAPSE       17.04 TCPU       14.50
 TTTTTTTTTTTTTTTTTTTTTTTTTTTTTT SHELLXN     TELAPSE       20.54 TCPU       17.98
 TTTTTTTTTTTTTTTTTTTTTTTTTTTTTT MONMO3      TELAPSE       20.56 TCPU       17.99
 NUMERICALLY INTEGRATED DENSITY    360.0000378451
 TTTTTTTTTTTTTTTTTTTTTTTTTTTTTT NUMDFT      TELAPSE       20.70 TCPU       18.13
 CYC   2 ETOT(AU) -1.257646841341E+04 DETOT  2.70E-03 tst  1.48E-03 PX  8.69E-02
 TTTTTTTTTTTTTTTTTTTTTTTTTTTTTT DIIS        TELAPSE       20.71 TCPU       18.15
 DIIS TEST: 0.15759E+01 AT SCF   CYCLE   2 - DIIS ACTIVE - HISTORY:     2 CYCLES
 TTTTTTTTTTTTTTTTTTTTTTTTTTTTTT FDIK        TELAPSE       21.11 TCPU       18.54
 INSULATING STATE
 TOP OF VALENCE BANDS -    BAND    180; K   13; EIG -1.4535790E-01 AU
 TOP OF VALENCE BANDS -    BAND    180; K    1; EIG -1.4794309E-01 AU
 BOTTOM OF VIRTUAL BANDS - BAND    181; K   31; EIG -7.2107609E-02 AU
 INDIRECT ENERGY BAND GAP:   1.9932 eV
 BOTTOM OF VIRTUAL BANDS - BAND    181; K    1; EIG -7.1081783E-02 AU
 TTTTTTTTTTTTTTTTTTTTTTTTTTTTTT PDIG        TELAPSE       21.29 TCPU       18.72
 TTTTTTTTTTTTTTTTTTTTTTTTTTTTTT MOQGAD      TELAPSE       21.29 TCPU       18.72
 TTTTTTTTTTTTTTTTTTTTTTTTTTTTTT SHELLXN     TELAPSE       24.80 TCPU       22.20
 TTTTTTTTTTTTTTTTTTTTTTTTTTTTTT MONMO3      TELAPSE       24.81 TCPU       22.22
 NUMERICALLY INTEGRATED DENSITY    360.0000379009
 TTTTTTTTTTTTTTTTTTTTTTTTTTTTTT NUMDFT      TELAPSE       24.95 TCPU       22.36
 CYC   3 ETOT(AU) -1.257660563632E+04 DETOT -1.37E-01 tst  2.51E-04 PX  7.24E-02
 TTTTTTTTTTTTTTTTTTTTTTTTTTTTTT DIIS        TELAPSE       24.97 TCPU       22.37
 DIIS TEST: 0.51985E-02 AT SCF   CYCLE   3 - DIIS ACTIVE - HISTORY:     3 CYCLES
 TTTTTTTTTTTTTTTTTTTTTTTTTTTTTT FDIK        TELAPSE       25.28 TCPU       22.68
 INSULATING STATE
 TOP OF VALENCE BANDS -    BAND    180; K   13; EIG -1.4825488E-01 AU
 TOP OF VALENCE BANDS -    BAND    180; K    1; EIG -1.5044076E-01 AU
 BOTTOM OF VIRTUAL BANDS - BAND    181; K   31; EIG -7.1946378E-02 AU
 INDIRECT ENERGY BAND GAP:   2.0765 eV
 BOTTOM OF VIRTUAL BANDS - BAND    181; K    1; EIG -7.0932777E-02 AU
 TTTTTTTTTTTTTTTTTTTTTTTTTTTTTT PDIG        TELAPSE       25.46 TCPU       22.86
 TTTTTTTTTTTTTTTTTTTTTTTTTTTTTT MOQGAD      TELAPSE       25.46 TCPU       22.86
 TTTTTTTTTTTTTTTTTTTTTTTTTTTTTT SHELLXN     TELAPSE       28.96 TCPU       26.34
 TTTTTTTTTTTTTTTTTTTTTTTTTTTTTT MONMO3      TELAPSE       28.97 TCPU       26.35
 NUMERICALLY INTEGRATED DENSITY    360.0000378700
 TTTTTTTTTTTTTTTTTTTTTTTTTTTTTT NUMDFT      TELAPSE       29.26 TCPU       26.64
 CYC   4 ETOT(AU) -1.257660666316E+04 DETOT -1.03E-03 tst  1.64E-05 PX  1.91E-02
 TTTTTTTTTTTTTTTTTTTTTTTTTTTTTT DIIS        TELAPSE       29.28 TCPU       26.66
 DIIS TEST: 0.21908E-02 AT SCF   CYCLE   4 - DIIS ACTIVE - HISTORY:     4 CYCLES
 TTTTTTTTTTTTTTTTTTTTTTTTTTTTTT FDIK        TELAPSE       29.61 TCPU       26.98
 INSULATING STATE
 TOP OF VALENCE BANDS -    BAND    180; K   13; EIG -1.4706575E-01 AU
 TOP OF VALENCE BANDS -    BAND    180; K    1; EIG -1.4916333E-01 AU
 BOTTOM OF VIRTUAL BANDS - BAND    181; K   31; EIG -7.1498093E-02 AU
 INDIRECT ENERGY BAND GAP:   2.0563 eV
 BOTTOM OF VIRTUAL BANDS - BAND    181; K    1; EIG -7.0549072E-02 AU
 TTTTTTTTTTTTTTTTTTTTTTTTTTTTTT PDIG        TELAPSE       29.79 TCPU       27.16
 TTTTTTTTTTTTTTTTTTTTTTTTTTTTTT MOQGAD      TELAPSE       29.79 TCPU       27.16
 TTTTTTTTTTTTTTTTTTTTTTTTTTTTTT SHELLXN     TELAPSE       33.29 TCPU       30.64
 TTTTTTTTTTTTTTTTTTTTTTTTTTTTTT MONMO3      TELAPSE       33.31 TCPU       30.65
 NUMERICALLY INTEGRATED DENSITY    360.0000379112
 TTTTTTTTTTTTTTTTTTTTTTTTTTTTTT NUMDFT      TELAPSE       33.44 TCPU       30.79
 CYC   5 ETOT(AU) -1.257660718796E+04 DETOT -5.25E-04 tst  8.37E-06 PX  7.06E-03
 TTTTTTTTTTTTTTTTTTTTTTTTTTTTTT DIIS        TELAPSE       33.46 TCPU       30.81
 DIIS TEST: 0.13054E-03 AT SCF   CYCLE   5 - DIIS ACTIVE - HISTORY:     5 CYCLES
 TTTTTTTTTTTTTTTTTTTTTTTTTTTTTT FDIK        TELAPSE       33.78 TCPU       31.12
 INSULATING STATE
 TOP OF VALENCE BANDS -    BAND    180; K   13; EIG -1.4716096E-01 AU
 TOP OF VALENCE BANDS -    BAND    180; K    1; EIG -1.4919946E-01 AU
 BOTTOM OF VIRTUAL BANDS - BAND    181; K   31; EIG -7.1206412E-02 AU
 INDIRECT ENERGY BAND GAP:   2.0668 eV
 BOTTOM OF VIRTUAL BANDS - BAND    181; K    1; EIG -7.0330074E-02 AU
 TTTTTTTTTTTTTTTTTTTTTTTTTTTTTT PDIG        TELAPSE       33.95 TCPU       31.30
 TTTTTTTTTTTTTTTTTTTTTTTTTTTTTT MOQGAD      TELAPSE       33.96 TCPU       31.30
 TTTTTTTTTTTTTTTTTTTTTTTTTTTTTT SHELLXN     TELAPSE       37.45 TCPU       34.77
 TTTTTTTTTTTTTTTTTTTTTTTTTTTTTT MONMO3      TELAPSE       37.47 TCPU       34.79
 NUMERICALLY INTEGRATED DENSITY    360.0000378895
 TTTTTTTTTTTTTTTTTTTTTTTTTTTTTT NUMDFT      TELAPSE       37.62 TCPU       34.94
 CYC   6 ETOT(AU) -1.257660721656E+04 DETOT -2.86E-05 tst  6.02E-07 PX  2.24E-03
 TTTTTTTTTTTTTTTTTTTTTTTTTTTTTT DIIS        TELAPSE       37.64 TCPU       34.96
 DIIS TEST: 0.81718E-05 AT SCF   CYCLE   6 - DIIS ACTIVE - HISTORY:     6 CYCLES
 TTTTTTTTTTTTTTTTTTTTTTTTTTTTTT FDIK        TELAPSE       37.96 TCPU       35.27
 INSULATING STATE
 TOP OF VALENCE BANDS -    BAND    180; K   13; EIG -1.4726569E-01 AU
 TOP OF VALENCE BANDS -    BAND    180; K    1; EIG -1.4929044E-01 AU
 BOTTOM OF VIRTUAL BANDS - BAND    181; K   31; EIG -7.1265271E-02 AU
 INDIRECT ENERGY BAND GAP:   2.0681 eV
 BOTTOM OF VIRTUAL BANDS - BAND    181; K    1; EIG -7.0393697E-02 AU
 TTTTTTTTTTTTTTTTTTTTTTTTTTTTTT PDIG        TELAPSE       38.18 TCPU       35.49
 TTTTTTTTTTTTTTTTTTTTTTTTTTTTTT MOQGAD      TELAPSE       38.18 TCPU       35.50
 TTTTTTTTTTTTTTTTTTTTTTTTTTTTTT SHELLXN     TELAPSE       41.68 TCPU       38.98
 TTTTTTTTTTTTTTTTTTTTTTTTTTTTTT MONMO3      TELAPSE       41.70 TCPU       38.99
 NUMERICALLY INTEGRATED DENSITY    360.0000378913
 TTTTTTTTTTTTTTTTTTTTTTTTTTTTTT NUMDFT      TELAPSE       42.02 TCPU       39.31
 CYC   7 ETOT(AU) -1.257660721878E+04 DETOT -2.22E-06 tst  3.04E-08 PX  9.34E-04
 TTTTTTTTTTTTTTTTTTTTTTTTTTTTTT DIIS        TELAPSE       42.04 TCPU       39.33
 DIIS TEST: 0.22976E-06 AT SCF   CYCLE   7 - DIIS ACTIVE - HISTORY:     7 CYCLES
 TTTTTTTTTTTTTTTTTTTTTTTTTTTTTT FDIK        TELAPSE       42.36 TCPU       39.64
 INSULATING STATE
 TOP OF VALENCE BANDS -    BAND    180; K   13; EIG -1.4727841E-01 AU
 TOP OF VALENCE BANDS -    BAND    180; K    1; EIG -1.4928987E-01 AU
 BOTTOM OF VIRTUAL BANDS - BAND    181; K   31; EIG -7.1278798E-02 AU
 INDIRECT ENERGY BAND GAP:   2.0681 eV
 BOTTOM OF VIRTUAL BANDS - BAND    181; K    1; EIG -7.0411892E-02 AU
 TTTTTTTTTTTTTTTTTTTTTTTTTTTTTT PDIG        TELAPSE       42.61 TCPU       39.89
 TTTTTTTTTTTTTTTTTTTTTTTTTTTTTT MOQGAD      TELAPSE       42.61 TCPU       39.89
 TTTTTTTTTTTTTTTTTTTTTTTTTTTTTT SHELLXN     TELAPSE       46.11 TCPU       43.37
 TTTTTTTTTTTTTTTTTTTTTTTTTTTTTT MONMO3      TELAPSE       46.12 TCPU       43.39
 NUMERICALLY INTEGRATED DENSITY    360.0000378902
 TTTTTTTTTTTTTTTTTTTTTTTTTTTTTT NUMDFT      TELAPSE       46.27 TCPU       43.53
 CYC   8 ETOT(AU) -1.257660721893E+04 DETOT -1.47E-07 tst  4.43E-09 PX  1.06E-04
 TTTTTTTTTTTTTTTTTTTTTTTTTTTTTT DIIS        TELAPSE       46.28 TCPU       43.55
 DIIS TEST: 0.96944E-08 AT SCF   CYCLE   8 - DIIS ACTIVE - HISTORY:     8 CYCLES
 TTTTTTTTTTTTTTTTTTTTTTTTTTTTTT FDIK        TELAPSE       46.61 TCPU       43.87
 INSULATING STATE
 TOP OF VALENCE BANDS -    BAND    180; K   13; EIG -1.4727943E-01 AU
 TOP OF VALENCE BANDS -    BAND    180; K    1; EIG -1.4928887E-01 AU
 BOTTOM OF VIRTUAL BANDS - BAND    181; K   31; EIG -7.1278937E-02 AU
 INDIRECT ENERGY BAND GAP:   2.0681 eV
 BOTTOM OF VIRTUAL BANDS - BAND    181; K    1; EIG -7.0412684E-02 AU
 TTTTTTTTTTTTTTTTTTTTTTTTTTTTTT PDIG        TELAPSE       46.79 TCPU       44.04
 TTTTTTTTTTTTTTTTTTTTTTTTTTTTTT MOQGAD      TELAPSE       46.79 TCPU       44.05
 TTTTTTTTTTTTTTTTTTTTTTTTTTTTTT SHELLXN     TELAPSE       50.29 TCPU       47.53
 TTTTTTTTTTTTTTTTTTTTTTTTTTTTTT MONMO3      TELAPSE       50.31 TCPU       47.55
 NUMERICALLY INTEGRATED DENSITY    360.0000378902
 TTTTTTTTTTTTTTTTTTTTTTTTTTTTTT NUMDFT      TELAPSE       50.45 TCPU       47.68
 CYC   9 ETOT(AU) -1.257660721890E+04 DETOT  3.11E-08 tst  2.25E-10 PX  1.62E-05
 TTTTTTTTTTTTTTTTTTTTTTTTTTTTTT DIIS        TELAPSE       50.47 TCPU       47.70
 DIIS TEST: 0.32556E-09 AT SCF   CYCLE   9 - DIIS ACTIVE - HISTORY:     9 CYCLES
 TTTTTTTTTTTTTTTTTTTTTTTTTTTTTT FDIK        TELAPSE       50.78 TCPU       48.01
 INSULATING STATE
 TOP OF VALENCE BANDS -    BAND    180; K   13; EIG -1.4727954E-01 AU
 TOP OF VALENCE BANDS -    BAND    180; K    1; EIG -1.4928832E-01 AU
 BOTTOM OF VIRTUAL BANDS - BAND    181; K   31; EIG -7.1278847E-02 AU
 INDIRECT ENERGY BAND GAP:   2.0681 eV
 BOTTOM OF VIRTUAL BANDS - BAND    181; K    1; EIG -7.0412728E-02 AU
 TTTTTTTTTTTTTTTTTTTTTTTTTTTTTT PDIG        TELAPSE       50.96 TCPU       48.19
 TTTTTTTTTTTTTTTTTTTTTTTTTTTTTT MOQGAD      TELAPSE       50.96 TCPU       48.19
 TTTTTTTTTTTTTTTTTTTTTTTTTTTTTT SHELLXN     TELAPSE       54.46 TCPU       51.67
 TTTTTTTTTTTTTTTTTTTTTTTTTTTTTT MONMO3      TELAPSE       54.47 TCPU       51.68
 NUMERICALLY INTEGRATED DENSITY    360.0000378901
 TTTTTTTTTTTTTTTTTTTTTTTTTTTTTT NUMDFT      TELAPSE       54.61 TCPU       51.82
 CYC  10 ETOT(AU) -1.257660721888E+04 DETOT  1.90E-08 tst  2.41E-11 PX  2.89E-06
 TTTTTTTTTTTTTTTTTTTTTTTTTTTTTT DIIS        TELAPSE       54.63 TCPU       51.84
 DIIS TEST: 0.57076E-10 AT SCF   CYCLE  10 - DIIS ACTIVE - HISTORY:    10 CYCLES
 TTTTTTTTTTTTTTTTTTTTTTTTTTTTTT FDIK        TELAPSE       54.94 TCPU       52.15
 INSULATING STATE
 TOP OF VALENCE BANDS -    BAND    180; K   13; EIG -1.4727954E-01 AU
 TOP OF VALENCE BANDS -    BAND    180; K    1; EIG -1.4928826E-01 AU
 BOTTOM OF VIRTUAL BANDS - BAND    181; K   31; EIG -7.1278917E-02 AU
 INDIRECT ENERGY BAND GAP:   2.0681 eV
 BOTTOM OF VIRTUAL BANDS - BAND    181; K    1; EIG -7.0412824E-02 AU
 TTTTTTTTTTTTTTTTTTTTTTTTTTTTTT PDIG        TELAPSE       55.12 TCPU       52.32
 TTTTTTTTTTTTTTTTTTTTTTTTTTTTTT MOQGAD      TELAPSE       55.12 TCPU       52.32
 TTTTTTTTTTTTTTTTTTTTTTTTTTTTTT SHELLXN     TELAPSE       58.62 TCPU       55.80
 TTTTTTTTTTTTTTTTTTTTTTTTTTTTTT MONMO3      TELAPSE       58.64 TCPU       55.82
 NUMERICALLY INTEGRATED DENSITY    360.0000378901
 TTTTTTTTTTTTTTTTTTTTTTTTTTTTTT NUMDFT      TELAPSE       58.79 TCPU       55.97
 CYC  11 ETOT(AU) -1.257660721889E+04 DETOT -3.65E-09 tst  3.66E-13 PX  4.24E-07
 TTTTTTTTTTTTTTTTTTTTTTTTTTTTTT DIIS        TELAPSE       58.81 TCPU       55.99
 DIIS TEST: 0.11906E-11 AT SCF   CYCLE  11 - DIIS ACTIVE - HISTORY:    11 CYCLES
 TTTTTTTTTTTTTTTTTTTTTTTTTTTTTT FDIK        TELAPSE       59.12 TCPU       56.30
 INSULATING STATE
 TOP OF VALENCE BANDS -    BAND    180; K   13; EIG -1.4727955E-01 AU
 TOP OF VALENCE BANDS -    BAND    180; K    1; EIG -1.4928823E-01 AU
 BOTTOM OF VIRTUAL BANDS - BAND    181; K   31; EIG -7.1278936E-02 AU
 INDIRECT ENERGY BAND GAP:   2.0681 eV
 BOTTOM OF VIRTUAL BANDS - BAND    181; K    1; EIG -7.0412845E-02 AU
 TTTTTTTTTTTTTTTTTTTTTTTTTTTTTT PDIG        TELAPSE       59.30 TCPU       56.47
 TTTTTTTTTTTTTTTTTTTTTTTTTTTTTT MOQGAD      TELAPSE       59.30 TCPU       56.47
 TTTTTTTTTTTTTTTTTTTTTTTTTTTTTT SHELLXN     TELAPSE       62.80 TCPU       59.95
 TTTTTTTTTTTTTTTTTTTTTTTTTTTTTT MONMO3      TELAPSE       62.82 TCPU       59.97
 NUMERICALLY INTEGRATED DENSITY    360.0000378901
 TTTTTTTTTTTTTTTTTTTTTTTTTTTTTT NUMDFT      TELAPSE       62.96 TCPU       60.11
 CYC  12 ETOT(AU) -1.257660721889E+04 DETOT -3.55E-10 tst  7.97E-14 PX  2.00E-07
 TTTTTTTTTTTTTTTTTTTTTTTTTTTTTT DIIS        TELAPSE       62.97 TCPU       60.12
 DIIS TEST: 0.58401E-13 AT SCF   CYCLE  12 - DIIS ACTIVE - HISTORY:    12 CYCLES
 TTTTTTTTTTTTTTTTTTTTTTTTTTTTTT FDIK        TELAPSE       63.29 TCPU       60.43
 INSULATING STATE
 TOP OF VALENCE BANDS -    BAND    180; K   13; EIG -1.4727955E-01 AU
 TOP OF VALENCE BANDS -    BAND    180; K    1; EIG -1.4928822E-01 AU
 BOTTOM OF VIRTUAL BANDS - BAND    181; K   31; EIG -7.1278934E-02 AU
 INDIRECT ENERGY BAND GAP:   2.0681 eV
 BOTTOM OF VIRTUAL BANDS - BAND    181; K    1; EIG -7.0412842E-02 AU
 TTTTTTTTTTTTTTTTTTTTTTTTTTTTTT PDIG        TELAPSE       63.47 TCPU       60.61
 TTTTTTTTTTTTTTTTTTTTTTTTTTTTTT MOQGAD      TELAPSE       63.47 TCPU       60.61
 TTTTTTTTTTTTTTTTTTTTTTTTTTTTTT SHELLXN     TELAPSE       66.97 TCPU       64.09
 TTTTTTTTTTTTTTTTTTTTTTTTTTTTTT MONMO3      TELAPSE       66.99 TCPU       64.11
 NUMERICALLY INTEGRATED DENSITY    360.0000378901
 TTTTTTTTTTTTTTTTTTTTTTTTTTTTTT NUMDFT      TELAPSE       67.13 TCPU       64.25
 CYC  13 ETOT(AU) -1.257660721889E+04 DETOT -2.04E-10 tst  2.51E-15 PX  3.74E-08
 TTTTTTTTTTTTTTTTTTTTTTTTTTTTTT DIIS        TELAPSE       67.14 TCPU       64.26
 DIIS TEST: 0.15653E-14 AT SCF   CYCLE  13 - DIIS ACTIVE - HISTORY:    13 CYCLES
 TTTTTTTTTTTTTTTTTTTTTTTTTTTTTT FDIK        TELAPSE       67.46 TCPU       64.58
 INSULATING STATE
 TOP OF VALENCE BANDS -    BAND    180; K   13; EIG -1.4727955E-01 AU
 TOP OF VALENCE BANDS -    BAND    180; K    1; EIG -1.4928822E-01 AU
 BOTTOM OF VIRTUAL BANDS - BAND    181; K   31; EIG -7.1278933E-02 AU
 INDIRECT ENERGY BAND GAP:   2.0681 eV
 BOTTOM OF VIRTUAL BANDS - BAND    181; K    1; EIG -7.0412841E-02 AU
 TTTTTTTTTTTTTTTTTTTTTTTTTTTTTT PDIG        TELAPSE       67.64 TCPU       64.75
 TTTTTTTTTTTTTTTTTTTTTTTTTTTTTT MOQGAD      TELAPSE       67.64 TCPU       64.75
 TTTTTTTTTTTTTTTTTTTTTTTTTTTTTT SHELLXN     TELAPSE       71.14 TCPU       68.23
 TTTTTTTTTTTTTTTTTTTTTTTTTTTTTT MONMO3      TELAPSE       71.16 TCPU       68.25
 NUMERICALLY INTEGRATED DENSITY    360.0000378901
 TTTTTTTTTTTTTTTTTTTTTTTTTTTTTT NUMDFT      TELAPSE       71.29 TCPU       68.39
 CYC  14 ETOT(AU) -1.257660721889E+04 DETOT -2.73E-11 tst  7.02E-17 PX  6.22E-09
 TTTTTTTTTTTTTTTTTTTTTTTTTTTTTT DIIS        TELAPSE       71.31 TCPU       68.40
 DIIS TEST: 0.24115E-16 AT SCF   CYCLE  14 - DIIS ACTIVE - HISTORY:    14 CYCLES
 TTTTTTTTTTTTTTTTTTTTTTTTTTTTTT FDIK        TELAPSE       71.62 TCPU       68.71
 INSULATING STATE
 TOP OF VALENCE BANDS -    BAND    180; K   13; EIG -1.4727955E-01 AU
 TOP OF VALENCE BANDS -    BAND    180; K    1; EIG -1.4928822E-01 AU
 BOTTOM OF VIRTUAL BANDS - BAND    181; K   31; EIG -7.1278933E-02 AU
 INDIRECT ENERGY BAND GAP:   2.0681 eV
 BOTTOM OF VIRTUAL BANDS - BAND    181; K    1; EIG -7.0412841E-02 AU
 TTTTTTTTTTTTTTTTTTTTTTTTTTTTTT PDIG        TELAPSE       71.80 TCPU       68.89
 TTTTTTTTTTTTTTTTTTTTTTTTTTTTTT MOQGAD      TELAPSE       71.80 TCPU       68.89
 TTTTTTTTTTTTTTTTTTTTTTTTTTTTTT SHELLXN     TELAPSE       75.30 TCPU       72.37
 TTTTTTTTTTTTTTTTTTTTTTTTTTTTTT MONMO3      TELAPSE       75.32 TCPU       72.38
 NUMERICALLY INTEGRATED DENSITY    360.0000378901
 TTTTTTTTTTTTTTTTTTTTTTTTTTTTTT NUMDFT      TELAPSE       75.56 TCPU       72.63
 CYC  15 ETOT(AU) -1.257660721889E+04 DETOT -9.09E-12 tst  1.56E-18 PX  6.05E-10
 TTTTTTTTTTTTTTTTTTTTTTTTTTTTTT DIIS        TELAPSE       75.58 TCPU       72.64
 DIIS TEST: 0.17413E-17 AT SCF   CYCLE  15 - DIIS ACTIVE - HISTORY:    14 CYCLES
 TTTTTTTTTTTTTTTTTTTTTTTTTTTTTT FDIK        TELAPSE       75.90 TCPU       72.96
 INSULATING STATE
 TOP OF VALENCE BANDS -    BAND    180; K   13; EIG -1.4727955E-01 AU
 TOP OF VALENCE BANDS -    BAND    180; K    1; EIG -1.4928822E-01 AU
 BOTTOM OF VIRTUAL BANDS - BAND    181; K   31; EIG -7.1278933E-02 AU
 INDIRECT ENERGY BAND GAP:   2.0681 eV
 BOTTOM OF VIRTUAL BANDS - BAND    181; K    1; EIG -7.0412841E-02 AU
 TTTTTTTTTTTTTTTTTTTTTTTTTTTTTT PDIG        TELAPSE       76.08 TCPU       73.13
 TTTTTTTTTTTTTTTTTTTTTTTTTTTTTT MOQGAD      TELAPSE       76.08 TCPU       73.14
 TTTTTTTTTTTTTTTTTTTTTTTTTTTTTT SHELLXN     TELAPSE       79.58 TCPU       76.62
 ::: PSEUDO TOTAL   ENERGY                        -1.2082091059495E+04
 ::: VIRIAL COEFFICIENT                            1.0192819071237E+00
 TTTTTTTTTTTTTTTTTTTTTTTTTTTTTT MONMO3      TELAPSE       79.60 TCPU       76.63
 NUMERICALLY INTEGRATED DENSITY    360.0000378901
 EXCHANGE ENERGY: -0.479159541501E+03  CORRELATION ENERGY: -0.153566178893E+02
 TTTTTTTTTTTTTTTTTTTTTTTTTTTTTT NUMDFT      TELAPSE       79.74 TCPU       76.77
 CYC  16 ETOT(AU) -1.257660721889E+04 DETOT  1.46E-11 tst  2.39E-20 PX  6.05E-10

 == SCF ENDED - CONVERGENCE ON ENERGY      E(AU) -1.2576607218886E+04 CYCLES  16


 ENERGY EXPRESSION=HARTREE+FOCK EXCH*0.25000+(PBE        EXCH)*0.75000+PBE        CORR


 TOTAL ENERGY(DFT)(AU)( 16) -1.2576607218886E+04 DE 1.5E-11 tester 2.4E-20
 TTTTTTTTTTTTTTTTTTTTTTTTTTTTTT EDFT        TELAPSE       79.74 TCPU       76.78

 *******************************************************************************
 *                             FORCE CALCULATION                               *
 *******************************************************************************

 TTTTTTTTTTTTTTTTTTTTTTTTTTTTTT NUMDFG      TELAPSE       80.13 TCPU       77.16
 INFORMATION **** EXCPOG **** EXCH. BIPO BUFFER LENGTH (WORDS) =     7635060
 INFORMATION **** GENPOG **** BIPO BUFFER LENGTH (WORDS) =     2654400
 TTTTTTTTTTTTTTTTTTTTTTTTTTTTTT SHELXG      TELAPSE       94.14 TCPU       91.07

 CARTESIAN FORCES IN HARTREE/BOHR (ANALYTICAL)
   ATOM                     X                   Y                   Z
   1  30            -9.226071937661E-03  9.226071937673E-03  2.842170943040E-14
   2  30             9.226071937649E-03 -9.226071937637E-03  1.731947918415E-14
   3  30            -9.226071937666E-03 -9.226071937661E-03  2.486899575160E-14
   4  30             9.226071937643E-03  9.226071937633E-03  2.198241588758E-14
   5  15             8.710469934875E-03 -2.174865043291E-02 -2.644811126619E-02
   6  15            -8.710469934849E-03  2.174865043292E-02 -2.644811126625E-02
   7  15             8.710469934883E-03  2.174865043289E-02  2.644811126624E-02
   8  15            -8.710469934899E-03 -2.174865043290E-02  2.644811126622E-02
   9  15             2.174865043291E-02 -8.710469934889E-03  2.644811126620E-02
  10  15            -2.174865043291E-02  8.710469934896E-03  2.644811126622E-02
  11  15            -2.174865043291E-02 -8.710469934869E-03 -2.644811126628E-02
  12  15             2.174865043292E-02  8.710469934852E-03 -2.644811126624E-02
  13  15            -6.243982917838E-03 -6.907541222861E-03  1.000505099047E-02
  14  15             6.243982917849E-03  6.907541222871E-03  1.000505099046E-02
  15  15            -6.243982917864E-03  6.907541222860E-03 -1.000505099048E-02
  16  15             6.243982917860E-03 -6.907541222876E-03 -1.000505099049E-02
  17  15             6.907541222871E-03  6.243982917841E-03 -1.000505099047E-02
  18  15            -6.907541222853E-03 -6.243982917824E-03 -1.000505099043E-02
  19  15            -6.907541222858E-03  6.243982917851E-03  1.000505099048E-02
  20  15             6.907541222856E-03 -6.243982917865E-03  1.000505099045E-02

 RESULTANT FORCE     1.554312234475E-15 -1.554312234475E-15  1.998401444325E-15

 ATOMIC PART

 SYMMETRY ALLOWED FORCES (ANALYTICAL) (DIRECTION, FORCE)

    1 -2.6095272E-02    2  2.4636929E-02    3 -6.1514473E-02    4 -7.4806555E-02
    5 -1.7660651E-02    6 -1.9537477E-02    7  2.8298558E-02

 CELL PART

 GRADIENT WITH RESPECT TO THE CELL PARAMETER IN HARTREE/BOHR
ORDER: -D/DA1X, -D/DA1Y, -D/DA1Z
       -D/DA2X, -D/DA2Y, -D/DA2Z
       -D/DA3X, -D/DA3Y, -D/DA3Z
 -0.187517158574E-01 -0.239551015147E-13  0.116296490037E-13
 -0.222673510978E-13 -0.187517158574E-01  0.226144411424E-14
  0.185037666657E-14 -0.270854085643E-14  0.154088555915E-02

STRESS TENSOR, IN HARTREE/BOHR^3:
ORDER: 11 12 13
       21 22 23
       31 32 33
  0.720075712198E-04  0.855077947129E-16 -0.205989962341E-16
  0.919888447281E-16  0.720075712199E-04  0.301523597382E-16
 -0.446584614050E-16 -0.868406386670E-17 -0.171536403390E-04

STRESS TENSOR DOES NOT CORRESPOND TO
HYDROSTATIC PRESSURE, NO PRESSURE COMPUTED!

 SYMMETRY ALLOWED FORCES (ANALYTICAL) (DIRECTION, FORCE)

    1 -7.9045625E-03    2 -6.0143330E-03
 TTTTTTTTTTTTTTTTTTTTTTTTTTTTTT TOTGRA      TELAPSE       94.54 TCPU       91.47
 INFORMATION **** optc001 **** GEOMETRY OUTPUT FILE
 CLASSICAL MODEL (SCHLEGEL) USED AS INITIAL HESSIAN MATRIX
 REFERENCE GEOMETRY DEFINED

 MAX GRADIENT      0.074807  THRESHOLD              0.000045 CONVERGED NO
 RMS GRADIENT      0.036910  THRESHOLD              0.000030 CONVERGED NO

 GRADIENT NORM     0.110730  GRADIENT THRESHOLD     0.500000

 EIGENVALUES OF THE ESTIMATED HESSIAN
  0.1846E-02  0.2705E-02  0.1860E-01  0.7170E-01  0.8764E-01  0.2053    
  0.2338      0.2828      0.3238    
 NEWTON STEP ( 0.4030080524E+01) EXCEEDS TRUST RADIUS ( 0.5000000000E+00)
 LEVEL SHIFT     0.1562700758E-02

 INITIAL TRUST RADIUS    0.5000000000E+00

 PREDICTED ENERGY CHANGE    -0.813E-02

 INITIAL DISPLACEMENTS
 -0.133616  0.237753 -0.000438 -0.100444  0.095129  0.208122 -0.061230 -0.124745
  0.306360
 TTTTTTTTTTTTTTTTTTTTTTTTTTTTTT OPTI        TELAPSE       95.55 TCPU       92.47

 OPTOPTOPTOPTOPTOPTOPTOPTOPTOPTOPTOPTOPTOPTOPTOPTOPTOPTOPTOPTOPTOPTOPTOPTOPTOPT

 - INFORMATION ON SCF MOVED TO SCFOUT.LOG
 GEOMETRY OPTIMIZATION INFORMATION STORED IN OPTINFO.DAT

 OPTOPTOPTOPTOPTOPTOPTOPTOPTOPTOPTOPTOPTOPTOPTOPTOPTOPTOPTOPTOPTOPTOPTOPTOPTOPT
 *******************************************************************************
 COORDINATE AND CELL OPTIMIZATION - POINT    2
 *******************************************************************************
 LATTICE PARAMETERS (ANGSTROMS AND DEGREES) - BOHR = 0.5291772083 ANGSTROM
 PRIMITIVE CELL - CENTRING CODE 1/0 VOLUME=   362.276951 - DENSITY  3.444 g/cm^3
         A              B              C           ALPHA      BETA       GAMMA 
     5.02063206     5.02063206    14.37222190    90.000000  90.000000  90.000000
 *******************************************************************************
 ATOMS IN THE ASYMMETRIC UNIT    3 - ATOMS IN THE UNIT CELL:   20
     ATOM                 X/A                 Y/B                 Z/C    
 *******************************************************************************
      1 T  30 ZN   -2.899843318967E-01  2.899843318967E-01 -2.500000000000E-01
      2 F  30 ZN    2.899843318967E-01 -2.899843318967E-01  2.500000000000E-01
      3 F  30 ZN    2.100156681033E-01  2.100156681033E-01  0.000000000000E+00
      4 F  30 ZN   -2.100156681033E-01 -2.100156681033E-01 -5.000000000000E-01
      5 T  15 P    -4.191310271064E-01 -4.750163361911E-01  3.817075224760E-01
      6 F  15 P     4.191310271064E-01  4.750163361911E-01 -1.182924775240E-01
      7 F  15 P     8.086897289355E-02 -2.498366380888E-02  3.682924775240E-01
      8 F  15 P    -8.086897289355E-02  2.498366380888E-02 -1.317075224760E-01
      9 F  15 P     4.750163361911E-01  4.191310271064E-01  1.182924775240E-01
     10 F  15 P    -4.750163361911E-01 -4.191310271064E-01 -3.817075224760E-01
     11 F  15 P     2.498366380888E-02 -8.086897289355E-02  1.317075224760E-01
     12 F  15 P    -2.498366380888E-02  8.086897289355E-02 -3.682924775240E-01
     13 T  15 P     1.725486229854E-01  4.147636522598E-01 -4.517878811327E-01
     14 F  15 P    -1.725486229854E-01 -4.147636522598E-01  4.821211886726E-02
     15 F  15 P    -3.274513770146E-01  8.523634774024E-02  2.017878811327E-01
     16 F  15 P     3.274513770146E-01 -8.523634774024E-02 -2.982121188673E-01
     17 F  15 P    -4.147636522598E-01 -1.725486229854E-01 -4.821211886726E-02
     18 F  15 P     4.147636522598E-01  1.725486229854E-01  4.517878811327E-01
     19 F  15 P    -8.523634774024E-02  3.274513770146E-01  2.982121188673E-01
     20 F  15 P     8.523634774024E-02 -3.274513770146E-01 -2.017878811327E-01

 T = ATOM BELONGING TO THE ASYMMETRIC UNIT

 TOTAL ENERGY(DFT)(AU)( 16) -1.2576614311660E+04     DE (AU)   -7.093E-03

 UPDATED TRUST RADIUS     0.500E+00

 SYMMETRY ALLOWED FORCES  (COORDINATE, FORCE)

    1 -2.4228504E-02    2  2.3442111E-02    3 -6.0871148E-02    4 -6.6202828E-02
    5 -1.7234966E-02    6 -2.0670230E-02    7  2.7975190E-02    8 -4.0145529E-03
    9 -8.6666513E-03

 GRADIENT NORM     0.104033  GRADIENT THRESHOLD     0.500000

 EIGENVALUES OF THE ESTIMATED HESSIAN
  0.1725E-02  0.7623E-02  0.2509E-01  0.7622E-01  0.8790E-01  0.2044    
  0.2108      0.2833      0.3241    
 NEWTON STEP ( 0.2332424920E+01) EXCEEDS TRUST RADIUS ( 0.5000000000E+00)
 LEVEL SHIFT    -0.5687260994E-02

 PREDICTED ENERGY CHANGE    -0.258E-01

 MAX GRADIENT      0.066203  THRESHOLD              0.000045 CONVERGED NO
 RMS GRADIENT      0.034678  THRESHOLD              0.000030 CONVERGED NO
 MAX DISPLAC.      0.279305  THRESHOLD              0.000180 CONVERGED NO
 RMS DISPLAC.      0.166667  THRESHOLD              0.000120 CONVERGED NO
 TTTTTTTTTTTTTTTTTTTTTTTTTTTTTT OPTI        TELAPSE      183.84 TCPU      180.16
 *******************************************************************************
 COORDINATE AND CELL OPTIMIZATION - POINT    3
 *******************************************************************************
 LATTICE PARAMETERS (ANGSTROMS AND DEGREES) - BOHR = 0.5291772083 ANGSTROM
 PRIMITIVE CELL - CENTRING CODE 1/0 VOLUME=   366.331445 - DENSITY  3.406 g/cm^3
         A              B              C           ALPHA      BETA       GAMMA 
     5.05084924     5.05084924    14.35970069    90.000000  90.000000  90.000000
 *******************************************************************************
 ATOMS IN THE ASYMMETRIC UNIT    3 - ATOMS IN THE UNIT CELL:   20
     ATOM                 X/A                 Y/B                 Z/C    
 *******************************************************************************
      1 T  30 ZN   -2.901836450415E-01  2.901836450415E-01 -2.500000000000E-01
      2 F  30 ZN    2.901836450415E-01 -2.901836450415E-01  2.500000000000E-01
      3 F  30 ZN    2.098163549585E-01  2.098163549585E-01  0.000000000000E+00
      4 F  30 ZN   -2.098163549585E-01 -2.098163549585E-01 -5.000000000000E-01
      5 T  15 P    -4.106604960174E-01 -4.854353625669E-01  3.785520078273E-01
      6 F  15 P     4.106604960174E-01  4.854353625669E-01 -1.214479921727E-01
      7 F  15 P     8.933950398262E-02 -1.456463743312E-02  3.714479921727E-01
      8 F  15 P    -8.933950398262E-02  1.456463743312E-02 -1.285520078273E-01
      9 F  15 P     4.854353625669E-01  4.106604960174E-01  1.214479921727E-01
     10 F  15 P    -4.854353625669E-01 -4.106604960174E-01 -3.785520078273E-01
     11 F  15 P     1.456463743312E-02 -8.933950398262E-02  1.285520078273E-01
     12 F  15 P    -1.456463743312E-02  8.933950398262E-02 -3.714479921727E-01
     13 T  15 P     1.741750369063E-01  4.178675833635E-01 -4.512970947223E-01
     14 F  15 P    -1.741750369063E-01 -4.178675833635E-01  4.870290527774E-02
     15 F  15 P    -3.258249630937E-01  8.213241663652E-02  2.012970947223E-01
     16 F  15 P     3.258249630937E-01 -8.213241663652E-02 -2.987029052777E-01
     17 F  15 P    -4.178675833635E-01 -1.741750369063E-01 -4.870290527774E-02
     18 F  15 P     4.178675833635E-01  1.741750369063E-01  4.512970947223E-01
     19 F  15 P    -8.213241663652E-02  3.258249630937E-01  2.987029052777E-01
     20 F  15 P     8.213241663652E-02 -3.258249630937E-01 -2.012970947223E-01

 T = ATOM BELONGING TO THE ASYMMETRIC UNIT

 TOTAL ENERGY(DFT)(AU)( 16) -1.2576638872942E+04     DE (AU)   -2.456E-02

 UPDATED TRUST RADIUS     0.500E+00

 SYMMETRY ALLOWED FORCES  (COORDINATE, FORCE)

    1 -1.5871787E-02    2  8.0810682E-03    3 -2.0441319E-02    4 -3.4596529E-02
    5 -6.4721968E-03    6 -1.0588818E-02    7  7.5374384E-03    8 -6.3518329E-03
    9 -6.9778446E-03

 GRADIENT NORM     0.047242  GRADIENT THRESHOLD     0.500000

 EIGENVALUES OF THE ESTIMATED HESSIAN
  0.2116E-02  0.7672E-02  0.2605E-01  0.7510E-01  0.9064E-01  0.1773    
  0.2176      0.2838      0.3241    
 NEWTON STEP ( 0.5648416999E+01) EXCEEDS TRUST RADIUS ( 0.5000000000E+00)
 LEVEL SHIFT    -0.2171208001E-01

 PREDICTED ENERGY CHANGE    -0.115E-01

 MAX GRADIENT      0.034597  THRESHOLD              0.000045 CONVERGED NO
 RMS GRADIENT      0.015747  THRESHOLD              0.000030 CONVERGED NO
 MAX DISPLAC.      0.281703  THRESHOLD              0.000180 CONVERGED NO
 RMS DISPLAC.      0.166667  THRESHOLD              0.000120 CONVERGED NO
 TTTTTTTTTTTTTTTTTTTTTTTTTTTTTT OPTI        TELAPSE      272.57 TCPU      268.29
 *******************************************************************************
 COORDINATE AND CELL OPTIMIZATION - POINT    4
 *******************************************************************************
 LATTICE PARAMETERS (ANGSTROMS AND DEGREES) - BOHR = 0.5291772083 ANGSTROM
 PRIMITIVE CELL - CENTRING CODE 1/0 VOLUME=   358.649940 - DENSITY  3.478 g/cm^3
         A              B              C           ALPHA      BETA       GAMMA 
     4.99592827     4.99592827    14.36939137    90.000000  90.000000  90.000000
 *******************************************************************************
 ATOMS IN THE ASYMMETRIC UNIT    3 - ATOMS IN THE UNIT CELL:   20
     ATOM                 X/A                 Y/B                 Z/C    
 *******************************************************************************
      1 T  30 ZN   -2.971864442663E-01  2.971864442663E-01 -2.500000000000E-01
      2 F  30 ZN    2.971864442663E-01 -2.971864442663E-01  2.500000000000E-01
      3 F  30 ZN    2.028135557337E-01  2.028135557337E-01  0.000000000000E+00
      4 F  30 ZN   -2.028135557337E-01 -2.028135557337E-01  5.000000000000E-01
      5 T  15 P    -4.076217516765E-01 -4.868380824512E-01  3.757589634722E-01
      6 F  15 P     4.076217516765E-01  4.868380824512E-01 -1.242410365278E-01
      7 F  15 P     9.237824832346E-02 -1.316191754883E-02  3.742410365278E-01
      8 F  15 P    -9.237824832346E-02  1.316191754883E-02 -1.257589634722E-01
      9 F  15 P     4.868380824512E-01  4.076217516765E-01  1.242410365278E-01
     10 F  15 P    -4.868380824512E-01 -4.076217516765E-01 -3.757589634722E-01
     11 F  15 P     1.316191754883E-02 -9.237824832346E-02  1.257589634722E-01
     12 F  15 P    -1.316191754883E-02  9.237824832346E-02 -3.742410365278E-01
     13 T  15 P     1.734372136567E-01  4.193792976439E-01 -4.509356520487E-01
     14 F  15 P    -1.734372136567E-01 -4.193792976439E-01  4.906434795132E-02
     15 F  15 P    -3.265627863433E-01  8.062070235613E-02  2.009356520487E-01
     16 F  15 P     3.265627863433E-01 -8.062070235613E-02 -2.990643479513E-01
     17 F  15 P    -4.193792976439E-01 -1.734372136567E-01 -4.906434795132E-02
     18 F  15 P     4.193792976439E-01  1.734372136567E-01  4.509356520487E-01
     19 F  15 P    -8.062070235613E-02  3.265627863433E-01  2.990643479513E-01
     20 F  15 P     8.062070235613E-02 -3.265627863433E-01 -2.009356520487E-01

 T = ATOM BELONGING TO THE ASYMMETRIC UNIT

 TOTAL ENERGY(DFT)(AU)( 14) -1.2576645989609E+04     DE (AU)   -7.117E-03

 UPDATED TRUST RADIUS     0.500E+00

 SYMMETRY ALLOWED FORCES  (COORDINATE, FORCE)

    1 -9.7710326E-04    2 -3.8282015E-03    3 -3.2462412E-03    4  2.7778449E-03
    5  9.3549691E-03    6  7.3345102E-03    7 -4.5288393E-03    8  6.8542924E-03
    9 -2.9711538E-03

 GRADIENT NORM     0.015859  GRADIENT THRESHOLD     0.500000

 EIGENVALUES OF THE ESTIMATED HESSIAN
  0.4024E-02  0.7613E-02  0.2891E-01  0.7501E-01  0.8862E-01  0.1686    
  0.2230      0.2955      0.3349    

 PREDICTED ENERGY CHANGE    -0.181E-02

 MAX GRADIENT      0.009355  THRESHOLD              0.000045 CONVERGED NO
 RMS GRADIENT      0.005286  THRESHOLD              0.000030 CONVERGED NO
 MAX DISPLAC.      0.268629  THRESHOLD              0.000180 CONVERGED NO
 RMS DISPLAC.      0.147579  THRESHOLD              0.000120 CONVERGED NO
 TTTTTTTTTTTTTTTTTTTTTTTTTTTTTT OPTI        TELAPSE      353.37 TCPU      348.53
 *******************************************************************************
 COORDINATE AND CELL OPTIMIZATION - POINT    5
 *******************************************************************************
 LATTICE PARAMETERS (ANGSTROMS AND DEGREES) - BOHR = 0.5291772083 ANGSTROM
 PRIMITIVE CELL - CENTRING CODE 1/0 VOLUME=   363.779653 - DENSITY  3.429 g/cm^3
         A              B              C           ALPHA      BETA       GAMMA 
     5.01852977     5.01852977    14.44393068    90.000000  90.000000  90.000000
 *******************************************************************************
 ATOMS IN THE ASYMMETRIC UNIT    3 - ATOMS IN THE UNIT CELL:   20
     ATOM                 X/A                 Y/B                 Z/C    
 *******************************************************************************
      1 T  30 ZN   -3.015861730936E-01  3.015861730936E-01 -2.500000000000E-01
      2 F  30 ZN    3.015861730936E-01 -3.015861730936E-01  2.500000000000E-01
      3 F  30 ZN    1.984138269064E-01  1.984138269064E-01  0.000000000000E+00
      4 F  30 ZN   -1.984138269064E-01 -1.984138269064E-01 -5.000000000000E-01
      5 T  15 P    -3.976009754810E-01 -4.883275515070E-01  3.750970260653E-01
      6 F  15 P     3.976009754810E-01  4.883275515070E-01 -1.249029739347E-01
      7 F  15 P     1.023990245190E-01 -1.167244849296E-02  3.749029739347E-01
      8 F  15 P    -1.023990245190E-01  1.167244849296E-02 -1.250970260653E-01
      9 F  15 P     4.883275515070E-01  3.976009754810E-01  1.249029739347E-01
     10 F  15 P    -4.883275515070E-01 -3.976009754810E-01 -3.750970260653E-01
     11 F  15 P     1.167244849296E-02 -1.023990245190E-01  1.250970260653E-01
     12 F  15 P    -1.167244849296E-02  1.023990245190E-01 -3.749029739347E-01
     13 T  15 P     1.791130319764E-01  4.271800212754E-01 -4.516671684698E-01
     14 F  15 P    -1.791130319764E-01 -4.271800212754E-01  4.833283153015E-02
     15 F  15 P    -3.208869680236E-01  7.281997872459E-02  2.016671684698E-01
     16 F  15 P     3.208869680236E-01 -7.281997872459E-02 -2.983328315302E-01
     17 F  15 P    -4.271800212754E-01 -1.791130319764E-01 -4.833283153015E-02
     18 F  15 P     4.271800212754E-01  1.791130319764E-01  4.516671684698E-01
     19 F  15 P    -7.281997872459E-02  3.208869680236E-01  2.983328315302E-01
     20 F  15 P     7.281997872459E-02 -3.208869680236E-01 -2.016671684698E-01

 T = ATOM BELONGING TO THE ASYMMETRIC UNIT

 TOTAL ENERGY(DFT)(AU)( 13) -1.2576647488223E+04     DE (AU)   -1.499E-03

 UPDATED TRUST RADIUS     0.500E+00

 SYMMETRY ALLOWED FORCES  (COORDINATE, FORCE)

    1 -2.1371321E-03    2 -4.0758768E-03    3  2.2772962E-03    4  1.1522272E-03
    5  3.4483768E-03    6  1.0327950E-03    7 -1.1307351E-03    8 -1.8320434E-03
    9 -1.4247231E-03

 GRADIENT NORM     0.006879  GRADIENT THRESHOLD     0.500000

 EIGENVALUES OF THE ESTIMATED HESSIAN
  0.3652E-02  0.8587E-02  0.3413E-01  0.7591E-01  0.9223E-01  0.1684    
  0.2187      0.2802      0.3230    
 NEWTON STEP ( 0.6041824453E+00) EXCEEDS TRUST RADIUS ( 0.5000000000E+00)
 LEVEL SHIFT    -0.6278372713E-03

 PREDICTED ENERGY CHANGE    -0.846E-03

 MAX GRADIENT      0.004076  THRESHOLD              0.000045 CONVERGED NO
 RMS GRADIENT      0.002293  THRESHOLD              0.000030 CONVERGED NO
 MAX DISPLAC.      0.413468  THRESHOLD              0.000180 CONVERGED NO
 RMS DISPLAC.      0.166667  THRESHOLD              0.000120 CONVERGED NO
 TTTTTTTTTTTTTTTTTTTTTTTTTTTTTT OPTI        TELAPSE      429.40 TCPU      423.90
 *******************************************************************************
 COORDINATE AND CELL OPTIMIZATION - POINT    6
 *******************************************************************************
 LATTICE PARAMETERS (ANGSTROMS AND DEGREES) - BOHR = 0.5291772083 ANGSTROM
 PRIMITIVE CELL - CENTRING CODE 1/0 VOLUME=   359.429511 - DENSITY  3.471 g/cm^3
         A              B              C           ALPHA      BETA       GAMMA 
     4.97025059     4.97025059    14.54980461    90.000000  90.000000  90.000000
 *******************************************************************************
 ATOMS IN THE ASYMMETRIC UNIT    3 - ATOMS IN THE UNIT CELL:   20
     ATOM                 X/A                 Y/B                 Z/C    
 *******************************************************************************
      1 T  30 ZN   -3.071563942453E-01  3.071563942453E-01 -2.500000000000E-01
      2 F  30 ZN    3.071563942453E-01 -3.071563942453E-01  2.500000000000E-01
      3 F  30 ZN    1.928436057547E-01  1.928436057547E-01  0.000000000000E+00
      4 F  30 ZN   -1.928436057547E-01 -1.928436057547E-01  5.000000000000E-01
      5 T  15 P    -3.952564819873E-01 -4.842930136529E-01  3.760108241075E-01
      6 F  15 P     3.952564819873E-01  4.842930136529E-01 -1.239891758925E-01
      7 F  15 P     1.047435180127E-01 -1.570698634715E-02  3.739891758925E-01
      8 F  15 P    -1.047435180127E-01  1.570698634715E-02 -1.260108241075E-01
      9 F  15 P     4.842930136529E-01  3.952564819873E-01  1.239891758925E-01
     10 F  15 P    -4.842930136529E-01 -3.952564819873E-01 -3.760108241075E-01
     11 F  15 P     1.570698634715E-02 -1.047435180127E-01  1.260108241075E-01
     12 F  15 P    -1.570698634715E-02  1.047435180127E-01 -3.739891758925E-01
     13 T  15 P     1.799816269927E-01  4.309437417991E-01 -4.519832134156E-01
     14 F  15 P    -1.799816269927E-01 -4.309437417991E-01  4.801678658435E-02
     15 F  15 P    -3.200183730073E-01  6.905625820088E-02  2.019832134156E-01
     16 F  15 P     3.200183730073E-01 -6.905625820088E-02 -2.980167865844E-01
     17 F  15 P    -4.309437417991E-01 -1.799816269927E-01 -4.801678658435E-02
     18 F  15 P     4.309437417991E-01  1.799816269927E-01  4.519832134156E-01
     19 F  15 P    -6.905625820088E-02  3.200183730073E-01  2.980167865844E-01
     20 F  15 P     6.905625820088E-02 -3.200183730073E-01 -2.019832134156E-01

 T = ATOM BELONGING TO THE ASYMMETRIC UNIT

 TOTAL ENERGY(DFT)(AU)( 14) -1.2576646365214E+04     DE (AU)    1.123E-03

 UPDATED TRUST RADIUS     0.125E+00
 ENERGY CHANGE > 0: STEP REJECTED. RETRYING WITH A NEW STEP

 EIGENVALUES OF THE ESTIMATED HESSIAN
  0.3652E-02  0.8587E-02  0.3413E-01  0.7591E-01  0.9223E-01  0.1684    
  0.2187      0.2802      0.3230    
 NEWTON STEP ( 0.6041824453E+00) EXCEEDS TRUST RADIUS ( 0.1250000000E+00)
 LEVEL SHIFT    -0.1346697952E-01

 PREDICTED ENERGY CHANGE    -0.404E-03

 MAX GRADIENT      0.004076  THRESHOLD              0.000045 CONVERGED NO
 RMS GRADIENT      0.002293  THRESHOLD              0.000030 CONVERGED NO
 MAX DISPLAC.      0.096388  THRESHOLD              0.000180 CONVERGED NO
 RMS DISPLAC.      0.041667  THRESHOLD              0.000120 CONVERGED NO
 TTTTTTTTTTTTTTTTTTTTTTTTTTTTTT OPTI        TELAPSE      494.93 TCPU      488.97
 *******************************************************************************
 COORDINATE AND CELL OPTIMIZATION - POINT    7
 *******************************************************************************
 LATTICE PARAMETERS (ANGSTROMS AND DEGREES) - BOHR = 0.5291772083 ANGSTROM
 PRIMITIVE CELL - CENTRING CODE 1/0 VOLUME=   362.340247 - DENSITY  3.443 g/cm^3
         A              B              C           ALPHA      BETA       GAMMA 
     5.00530047     5.00530047    14.46292949    90.000000  90.000000  90.000000
 *******************************************************************************
 ATOMS IN THE ASYMMETRIC UNIT    3 - ATOMS IN THE UNIT CELL:   20
     ATOM                 X/A                 Y/B                 Z/C    
 *******************************************************************************
      1 T  30 ZN   -3.028987716277E-01  3.028987716277E-01 -2.500000000000E-01
      2 F  30 ZN    3.028987716277E-01 -3.028987716277E-01  2.500000000000E-01
      3 F  30 ZN    1.971012283723E-01  1.971012283723E-01  0.000000000000E+00
      4 F  30 ZN   -1.971012283723E-01 -1.971012283723E-01  5.000000000000E-01
      5 T  15 P    -3.980535644983E-01 -4.868515431948E-01  3.753205998605E-01
      6 F  15 P     3.980535644983E-01  4.868515431948E-01 -1.246794001395E-01
      7 F  15 P     1.019464355017E-01 -1.314845680524E-02  3.746794001395E-01
      8 F  15 P    -1.019464355017E-01  1.314845680524E-02 -1.253205998605E-01
      9 F  15 P     4.868515431948E-01  3.980535644983E-01  1.246794001395E-01
     10 F  15 P    -4.868515431948E-01 -3.980535644983E-01 -3.753205998605E-01
     11 F  15 P     1.314845680524E-02 -1.019464355017E-01  1.253205998605E-01
     12 F  15 P    -1.314845680524E-02  1.019464355017E-01 -3.746794001395E-01
     13 T  15 P     1.795232423480E-01  4.277419692357E-01 -4.516932390743E-01
     14 F  15 P    -1.795232423480E-01 -4.277419692357E-01  4.830676092571E-02
     15 F  15 P    -3.204767576520E-01  7.225803076432E-02  2.016932390743E-01
     16 F  15 P     3.204767576520E-01 -7.225803076432E-02 -2.983067609257E-01
     17 F  15 P    -4.277419692357E-01 -1.795232423480E-01 -4.830676092571E-02
     18 F  15 P     4.277419692357E-01  1.795232423480E-01  4.516932390743E-01
     19 F  15 P    -7.225803076432E-02  3.204767576520E-01  2.983067609257E-01
     20 F  15 P     7.225803076432E-02 -3.204767576520E-01 -2.016932390743E-01

 T = ATOM BELONGING TO THE ASYMMETRIC UNIT

 TOTAL ENERGY(DFT)(AU)( 14) -1.2576647701354E+04     DE (AU)   -2.131E-04

 UPDATED TRUST RADIUS     0.125E+00

 SYMMETRY ALLOWED FORCES  (COORDINATE, FORCE)

    1 -1.1090351E-03    2  2.8429569E-04    3 -1.3736797E-03    4 -1.9795907E-03
    5  2.9788398E-04    6 -2.0107938E-03    7  6.5195252E-04    8 -4.8526732E-04
    9 -6.7671430E-04

 GRADIENT NORM     0.003517  GRADIENT THRESHOLD     0.500000

 EIGENVALUES OF THE ESTIMATED HESSIAN
  0.6584E-02  0.9787E-02  0.3807E-01  0.6343E-01  0.8995E-01  0.1749    
  0.2399      0.2730      0.3342    

 PREDICTED ENERGY CHANGE    -0.572E-04

 MAX GRADIENT      0.002011  THRESHOLD              0.000045 CONVERGED NO
 RMS GRADIENT      0.001172  THRESHOLD              0.000030 CONVERGED NO
 MAX DISPLAC.      0.051927  THRESHOLD              0.000180 CONVERGED NO
 RMS DISPLAC.      0.025711  THRESHOLD              0.000120 CONVERGED NO
 TTTTTTTTTTTTTTTTTTTTTTTTTTTTTT OPTI        TELAPSE      575.27 TCPU      568.73
 *******************************************************************************
 COORDINATE AND CELL OPTIMIZATION - POINT    8
 *******************************************************************************
 LATTICE PARAMETERS (ANGSTROMS AND DEGREES) - BOHR = 0.5291772083 ANGSTROM
 PRIMITIVE CELL - CENTRING CODE 1/0 VOLUME=   362.406756 - DENSITY  3.442 g/cm^3
         A              B              C           ALPHA      BETA       GAMMA 
     5.00205752     5.00205752    14.48434708    90.000000  90.000000  90.000000
 *******************************************************************************
 ATOMS IN THE ASYMMETRIC UNIT    3 - ATOMS IN THE UNIT CELL:   20
     ATOM                 X/A                 Y/B                 Z/C    
 *******************************************************************************
      1 T  30 ZN   -3.025213950458E-01  3.025213950458E-01 -2.500000000000E-01
      2 F  30 ZN    3.025213950458E-01 -3.025213950458E-01  2.500000000000E-01
      3 F  30 ZN    1.974786049542E-01  1.974786049542E-01  0.000000000000E+00
      4 F  30 ZN   -1.974786049542E-01 -1.974786049542E-01  5.000000000000E-01
      5 T  15 P    -3.995334119982E-01 -4.869218751352E-01  3.751731275360E-01
      6 F  15 P     3.995334119982E-01  4.869218751352E-01 -1.248268724640E-01
      7 F  15 P     1.004665880018E-01 -1.307812486480E-02  3.748268724640E-01
      8 F  15 P    -1.004665880018E-01  1.307812486480E-02 -1.251731275360E-01
      9 F  15 P     4.869218751352E-01  3.995334119982E-01  1.248268724640E-01
     10 F  15 P    -4.869218751352E-01 -3.995334119982E-01 -3.751731275360E-01
     11 F  15 P     1.307812486480E-02 -1.004665880018E-01  1.251731275360E-01
     12 F  15 P    -1.307812486480E-02  1.004665880018E-01 -3.748268724640E-01
     13 T  15 P     1.793559471029E-01  4.264694855584E-01 -4.514887939970E-01
     14 F  15 P    -1.793559471029E-01 -4.264694855584E-01  4.851120600297E-02
     15 F  15 P    -3.206440528971E-01  7.353051444159E-02  2.014887939970E-01
     16 F  15 P     3.206440528971E-01 -7.353051444159E-02 -2.985112060030E-01
     17 F  15 P    -4.264694855584E-01 -1.793559471029E-01 -4.851120600297E-02
     18 F  15 P     4.264694855584E-01  1.793559471029E-01  4.514887939970E-01
     19 F  15 P    -7.353051444159E-02  3.206440528971E-01  2.985112060030E-01
     20 F  15 P     7.353051444159E-02 -3.206440528971E-01 -2.014887939970E-01

 T = ATOM BELONGING TO THE ASYMMETRIC UNIT

 TOTAL ENERGY(DFT)(AU)( 13) -1.2576647766791E+04     DE (AU)   -6.544E-05

 UPDATED TRUST RADIUS     0.250E+00

 SYMMETRY ALLOWED FORCES  (COORDINATE, FORCE)

    1 -1.3720936E-04    2  3.5320513E-04    3 -2.0262639E-04    4 -7.1169421E-05
    5 -5.1491295E-04    6  3.7472725E-05    7 -2.7211145E-04    8  6.6002635E-05
    9 -1.6313805E-04

 GRADIENT NORM     0.000749  GRADIENT THRESHOLD     0.500000

 EIGENVALUES OF THE ESTIMATED HESSIAN
  0.7241E-02  0.9105E-02  0.3817E-01  0.7238E-01  0.9035E-01  0.1641    
  0.2403      0.2705      0.3288    

 PREDICTED ENERGY CHANGE    -0.841E-05

 MAX GRADIENT      0.000515  THRESHOLD              0.000045 CONVERGED NO
 RMS GRADIENT      0.000250  THRESHOLD              0.000030 CONVERGED NO
 MAX DISPLAC.      0.027478  THRESHOLD              0.000180 CONVERGED NO
 RMS DISPLAC.      0.013981  THRESHOLD              0.000120 CONVERGED NO
 TTTTTTTTTTTTTTTTTTTTTTTTTTTTTT OPTI        TELAPSE      651.25 TCPU      644.14
 *******************************************************************************
 COORDINATE AND CELL OPTIMIZATION - POINT    9
 *******************************************************************************
 LATTICE PARAMETERS (ANGSTROMS AND DEGREES) - BOHR = 0.5291772083 ANGSTROM
 PRIMITIVE CELL - CENTRING CODE 1/0 VOLUME=   362.302866 - DENSITY  3.443 g/cm^3
         A              B              C           ALPHA      BETA       GAMMA 
     4.99970200     4.99970200    14.49384225    90.000000  90.000000  90.000000
 *******************************************************************************
 ATOMS IN THE ASYMMETRIC UNIT    3 - ATOMS IN THE UNIT CELL:   20
     ATOM                 X/A                 Y/B                 Z/C    
 *******************************************************************************
      1 T  30 ZN   -3.031002404961E-01  3.031002404961E-01 -2.500000000000E-01
      2 F  30 ZN    3.031002404961E-01 -3.031002404961E-01  2.500000000000E-01
      3 F  30 ZN    1.968997595039E-01  1.968997595039E-01  0.000000000000E+00
      4 F  30 ZN   -1.968997595039E-01 -1.968997595039E-01 -5.000000000000E-01
      5 T  15 P    -3.986977009343E-01 -4.869747598942E-01  3.752091328552E-01
      6 F  15 P     3.986977009343E-01  4.869747598942E-01 -1.247908671448E-01
      7 F  15 P     1.013022990657E-01 -1.302524010580E-02  3.747908671448E-01
      8 F  15 P    -1.013022990657E-01  1.302524010580E-02 -1.252091328552E-01
      9 F  15 P     4.869747598942E-01  3.986977009343E-01  1.247908671448E-01
     10 F  15 P    -4.869747598942E-01 -3.986977009343E-01 -3.752091328552E-01
     11 F  15 P     1.302524010580E-02 -1.013022990657E-01  1.252091328552E-01
     12 F  15 P    -1.302524010580E-02  1.013022990657E-01 -3.747908671448E-01
     13 T  15 P     1.793419347273E-01  4.269918664292E-01 -4.515713113066E-01
     14 F  15 P    -1.793419347273E-01 -4.269918664292E-01  4.842868869344E-02
     15 F  15 P    -3.206580652727E-01  7.300813357085E-02  2.015713113066E-01
     16 F  15 P     3.206580652727E-01 -7.300813357085E-02 -2.984286886934E-01
[...]
            Z     0.0199    0.0257   -0.0035   -0.0291    0.0011   -0.0047
 AT.   7 P  X    -0.0272   -0.0283    0.0028   -0.0349   -0.0090   -0.0144
            Y     0.0122    0.0053   -0.0145    0.0084   -0.0245   -0.0327
            Z     0.0199    0.0257   -0.0035    0.0291   -0.0011   -0.0047
 AT.   8 P  X     0.0272    0.0283    0.0028   -0.0349    0.0090   -0.0144
            Y    -0.0122   -0.0053   -0.0145    0.0084    0.0245   -0.0327
            Z     0.0199    0.0257    0.0035   -0.0291   -0.0011    0.0047
 AT.   9 P  X     0.0122   -0.0053   -0.0084   -0.0145   -0.0245    0.0029
            Y     0.0272   -0.0283   -0.0349   -0.0028    0.0090    0.0012
            Z     0.0199   -0.0257   -0.0291   -0.0035   -0.0011   -0.0007
 AT.  10 P  X    -0.0122    0.0053   -0.0084   -0.0145    0.0245    0.0029
            Y    -0.0272    0.0283   -0.0349   -0.0028   -0.0090    0.0012
            Z     0.0199   -0.0257    0.0291    0.0035   -0.0011    0.0007
 AT.  11 P  X     0.0122   -0.0053   -0.0084    0.0145    0.0245    0.0029
            Y    -0.0272    0.0283    0.0349   -0.0028    0.0090   -0.0012
            Z     0.0199   -0.0257   -0.0291    0.0035    0.0011   -0.0007
 AT.  12 P  X    -0.0122    0.0053   -0.0084    0.0145   -0.0245    0.0029
            Y     0.0272   -0.0283    0.0349   -0.0028   -0.0090   -0.0012
            Z     0.0199   -0.0257    0.0291   -0.0035    0.0011    0.0007
 AT.  13 P  X     0.0040    0.0001    0.0033   -0.0013   -0.0086   -0.0021
            Y    -0.0036   -0.0024   -0.0033    0.0000    0.0114    0.0053
            Z    -0.0066   -0.0055    0.0020   -0.0155   -0.0156   -0.0035
 AT.  14 P  X    -0.0040   -0.0001    0.0033   -0.0013    0.0086   -0.0021
            Y     0.0036    0.0024   -0.0033    0.0000   -0.0114    0.0053
            Z    -0.0066   -0.0055   -0.0020    0.0155   -0.0156    0.0035
 AT.  15 P  X    -0.0040   -0.0001    0.0033    0.0013   -0.0086   -0.0021
            Y    -0.0036   -0.0024    0.0033    0.0000   -0.0114   -0.0053
            Z    -0.0066   -0.0055   -0.0020   -0.0155    0.0156    0.0035
 AT.  16 P  X     0.0040    0.0001    0.0033    0.0013    0.0086   -0.0021
            Y     0.0036    0.0024    0.0033    0.0000    0.0114   -0.0053
            Z    -0.0066   -0.0055    0.0020    0.0155    0.0156   -0.0035
 AT.  17 P  X    -0.0036    0.0024   -0.0000    0.0033   -0.0114    0.0133
            Y     0.0040   -0.0001    0.0013   -0.0033    0.0086   -0.0063
            Z    -0.0066    0.0055    0.0155   -0.0020    0.0156   -0.0260
 AT.  18 P  X     0.0036   -0.0024   -0.0000    0.0033    0.0114    0.0133
            Y    -0.0040    0.0001    0.0013   -0.0033   -0.0086   -0.0063
            Z    -0.0066    0.0055   -0.0155    0.0020    0.0156    0.0260
 AT.  19 P  X    -0.0036    0.0024   -0.0000   -0.0033    0.0114    0.0133
            Y    -0.0040    0.0001   -0.0013   -0.0033    0.0086    0.0063
            Z    -0.0066    0.0055    0.0155    0.0020   -0.0156   -0.0260
 AT.  20 P  X     0.0036   -0.0024   -0.0000   -0.0033   -0.0114    0.0133
            Y     0.0040   -0.0001   -0.0013   -0.0033   -0.0086    0.0063
            Z    -0.0066    0.0055   -0.0155   -0.0020   -0.0156    0.0260

 FREQ(CM**-1)    432.15    432.69    457.41    458.31    458.31    461.07

 AT.   1 ZN X    -0.0006   -0.0002   -0.0004    0.0001   -0.0006    0.0009
            Y    -0.0001   -0.0002    0.0004    0.0006   -0.0001   -0.0009
            Z     0.0015    0.0020    0.0000   -0.0002    0.0002    0.0000
 AT.   2 ZN X    -0.0006    0.0002    0.0004    0.0001   -0.0006   -0.0009
            Y    -0.0001    0.0002   -0.0004    0.0006   -0.0001    0.0009
            Z    -0.0015    0.0020    0.0000    0.0002   -0.0002    0.0000
 AT.   3 ZN X     0.0006   -0.0002   -0.0004    0.0001    0.0006   -0.0009
            Y    -0.0001    0.0002   -0.0004   -0.0006   -0.0001   -0.0009
            Z     0.0015   -0.0020    0.0000    0.0002    0.0002    0.0000
 AT.   4 ZN X     0.0006    0.0002    0.0004    0.0001    0.0006    0.0009
            Y    -0.0001   -0.0002    0.0004   -0.0006   -0.0001    0.0009
            Z    -0.0015   -0.0020    0.0000   -0.0002   -0.0002    0.0000
 AT.   5 P  X    -0.0012   -0.0115   -0.0027   -0.0055   -0.0071   -0.0063
            Y    -0.0029    0.0229   -0.0012   -0.0012    0.0050    0.0062
            Z     0.0007    0.0052   -0.0001    0.0023    0.0014    0.0008
 AT.   6 P  X    -0.0012    0.0115    0.0027   -0.0055   -0.0071    0.0063
            Y    -0.0029   -0.0229    0.0012   -0.0012    0.0050   -0.0062
            Z    -0.0007    0.0052   -0.0001   -0.0023   -0.0014    0.0008
 AT.   7 P  X     0.0012   -0.0115   -0.0027   -0.0055    0.0071    0.0063
            Y    -0.0029   -0.0229    0.0012    0.0012    0.0050    0.0062
            Z     0.0007   -0.0052    0.0001   -0.0023    0.0014    0.0008
 AT.   8 P  X     0.0012    0.0115    0.0027   -0.0055    0.0071   -0.0063
            Y    -0.0029    0.0229   -0.0012    0.0012    0.0050   -0.0062
            Z    -0.0007   -0.0052    0.0001    0.0023   -0.0014    0.0008
 AT.   9 P  X    -0.0327    0.0229    0.0012   -0.0050    0.0012   -0.0062
            Y     0.0144   -0.0115    0.0027    0.0071    0.0055    0.0063
            Z    -0.0047    0.0052    0.0001   -0.0014   -0.0023   -0.0008
 AT.  10 P  X    -0.0327   -0.0229   -0.0012   -0.0050    0.0012    0.0062
            Y     0.0144    0.0115   -0.0027    0.0071    0.0055   -0.0063
            Z     0.0047    0.0052    0.0001    0.0014    0.0023   -0.0008
 AT.  11 P  X     0.0327   -0.0229   -0.0012   -0.0050   -0.0012   -0.0062
            Y     0.0144   -0.0115    0.0027   -0.0071    0.0055   -0.0063
            Z     0.0047   -0.0052   -0.0001   -0.0014    0.0023   -0.0008
 AT.  12 P  X     0.0327    0.0229    0.0012   -0.0050   -0.0012    0.0062
            Y     0.0144    0.0115   -0.0027   -0.0071    0.0055    0.0063
            Z    -0.0047   -0.0052   -0.0001    0.0014   -0.0023   -0.0008
 AT.  13 P  X     0.0063    0.0029   -0.0165   -0.0084    0.0126    0.0066
            Y    -0.0133   -0.0091    0.0177    0.0301   -0.0186   -0.0286
            Z     0.0260    0.0186    0.0217    0.0119   -0.0195   -0.0104
 AT.  14 P  X     0.0063   -0.0029    0.0165   -0.0084    0.0126   -0.0066
            Y    -0.0133    0.0091   -0.0177    0.0301   -0.0186    0.0286
            Z    -0.0260    0.0186    0.0217   -0.0119    0.0195   -0.0104
 AT.  15 P  X    -0.0063    0.0029   -0.0165   -0.0084   -0.0126   -0.0066
            Y    -0.0133    0.0091   -0.0177   -0.0301   -0.0186   -0.0286
            Z     0.0260   -0.0186   -0.0217   -0.0119   -0.0195   -0.0104
 AT.  16 P  X    -0.0063   -0.0029    0.0165   -0.0084   -0.0126    0.0066
            Y    -0.0133   -0.0091    0.0177   -0.0301   -0.0186    0.0286
            Z    -0.0260   -0.0186   -0.0217    0.0119    0.0195   -0.0104
 AT.  17 P  X    -0.0053   -0.0091   -0.0177    0.0186   -0.0301    0.0286
            Y     0.0021    0.0029    0.0165   -0.0126    0.0084   -0.0066
            Z     0.0035    0.0186   -0.0217    0.0195   -0.0119    0.0104
 AT.  18 P  X    -0.0053    0.0091    0.0177    0.0186   -0.0301   -0.0286
            Y     0.0021   -0.0029   -0.0165   -0.0126    0.0084    0.0066
            Z    -0.0035    0.0186   -0.0217   -0.0195    0.0119    0.0104
 AT.  19 P  X     0.0053    0.0091    0.0177    0.0186    0.0301    0.0286
            Y     0.0021    0.0029    0.0165    0.0126    0.0084    0.0066
            Z    -0.0035   -0.0186    0.0217    0.0195    0.0119    0.0104
 AT.  20 P  X     0.0053   -0.0091   -0.0177    0.0186    0.0301   -0.0286
            Y     0.0021   -0.0029   -0.0165    0.0126    0.0084   -0.0066
            Z     0.0035   -0.0186    0.0217   -0.0195   -0.0119    0.0104

 FREQ(CM**-1)    477.73    480.90    480.90    482.69    502.31    502.31

 AT.   1 ZN X    -0.0002    0.0003    0.0001    0.0002   -0.0002    0.0003
            Y     0.0002   -0.0001   -0.0003    0.0002   -0.0003    0.0002
            Z     0.0000   -0.0013    0.0013   -0.0012    0.0006   -0.0006
 AT.   2 ZN X     0.0002    0.0003    0.0001   -0.0002   -0.0002    0.0003
            Y    -0.0002   -0.0001   -0.0003   -0.0002   -0.0003    0.0002
            Z     0.0000    0.0013   -0.0013   -0.0012   -0.0006    0.0006
 AT.   3 ZN X     0.0002   -0.0003    0.0001   -0.0002   -0.0002   -0.0003
            Y     0.0002   -0.0001    0.0003    0.0002    0.0003    0.0002
            Z     0.0000   -0.0013   -0.0013   -0.0012   -0.0006   -0.0006
 AT.   4 ZN X    -0.0002   -0.0003    0.0001    0.0002   -0.0002   -0.0003
            Y    -0.0002   -0.0001    0.0003   -0.0002    0.0003    0.0002
            Z     0.0000    0.0013    0.0013   -0.0012    0.0006    0.0006
 AT.   5 P  X     0.0145    0.0205    0.0019   -0.0169   -0.0161    0.0047
            Y    -0.0014   -0.0023    0.0045    0.0007   -0.0084    0.0141
            Z    -0.0195   -0.0266   -0.0042    0.0179    0.0169   -0.0080
 AT.   6 P  X    -0.0145    0.0205    0.0019    0.0169   -0.0161    0.0047
            Y     0.0014   -0.0023    0.0045   -0.0007   -0.0084    0.0141
            Z    -0.0195    0.0266    0.0042    0.0179   -0.0169    0.0080
 AT.   7 P  X    -0.0145   -0.0205    0.0019    0.0169   -0.0161   -0.0047
            Y    -0.0014   -0.0023   -0.0045    0.0007    0.0084    0.0141
            Z    -0.0195   -0.0266    0.0042    0.0179   -0.0169   -0.0080
 AT.   8 P  X     0.0145   -0.0205    0.0019   -0.0169   -0.0161   -0.0047
            Y     0.0014   -0.0023   -0.0045   -0.0007    0.0084    0.0141
            Z    -0.0195    0.0266   -0.0042    0.0179    0.0169    0.0080
 AT.   9 P  X     0.0014   -0.0045    0.0023    0.0007   -0.0141    0.0084
            Y    -0.0145   -0.0019   -0.0205   -0.0169   -0.0047    0.0161
            Z     0.0195    0.0042    0.0266    0.0179    0.0080   -0.0169
 AT.  10 P  X    -0.0014   -0.0045    0.0023   -0.0007   -0.0141    0.0084
            Y     0.0145   -0.0019   -0.0205    0.0169   -0.0047    0.0161
            Z     0.0195   -0.0042   -0.0266    0.0179   -0.0080    0.0169
 AT.  11 P  X     0.0014    0.0045    0.0023    0.0007   -0.0141   -0.0084
            Y     0.0145   -0.0019    0.0205    0.0169    0.0047    0.0161
            Z     0.0195   -0.0042    0.0266    0.0179    0.0080    0.0169
 AT.  12 P  X    -0.0014    0.0045    0.0023   -0.0007   -0.0141   -0.0084
            Y    -0.0145   -0.0019    0.0205   -0.0169    0.0047    0.0161
            Z     0.0195    0.0042   -0.0266    0.0179   -0.0080   -0.0169
 AT.  13 P  X     0.0049    0.0090   -0.0057    0.0017    0.0173   -0.0227
            Y     0.0042   -0.0013   -0.0090    0.0108   -0.0006   -0.0135
            Z    -0.0196   -0.0003    0.0254   -0.0167    0.0057    0.0016
 AT.  14 P  X    -0.0049    0.0090   -0.0057   -0.0017    0.0173   -0.0227
            Y    -0.0042   -0.0013   -0.0090   -0.0108   -0.0006   -0.0135
            Z    -0.0196    0.0003   -0.0254   -0.0167   -0.0057   -0.0016
 AT.  15 P  X    -0.0049   -0.0090   -0.0057   -0.0017    0.0173    0.0227
            Y     0.0042   -0.0013    0.0090    0.0108    0.0006   -0.0135
            Z    -0.0196   -0.0003   -0.0254   -0.0167   -0.0057    0.0016
 AT.  16 P  X     0.0049   -0.0090   -0.0057    0.0017    0.0173    0.0227
            Y    -0.0042   -0.0013    0.0090   -0.0108    0.0006   -0.0135
            Z    -0.0196    0.0003    0.0254   -0.0167    0.0057   -0.0016
 AT.  17 P  X    -0.0042    0.0090    0.0013    0.0108    0.0135    0.0006
            Y    -0.0049    0.0057   -0.0090    0.0017    0.0227   -0.0173
            Z     0.0196   -0.0254    0.0003   -0.0167   -0.0016   -0.0057
 AT.  18 P  X     0.0042    0.0090    0.0013   -0.0108    0.0135    0.0006
            Y     0.0049    0.0057   -0.0090   -0.0017    0.0227   -0.0173
            Z     0.0196    0.0254   -0.0003   -0.0167    0.0016    0.0057
 AT.  19 P  X    -0.0042   -0.0090    0.0013    0.0108    0.0135   -0.0006
            Y     0.0049    0.0057    0.0090   -0.0017   -0.0227   -0.0173
            Z     0.0196    0.0254    0.0003   -0.0167   -0.0016    0.0057
 AT.  20 P  X     0.0042   -0.0090    0.0013   -0.0108    0.0135   -0.0006
            Y    -0.0049    0.0057    0.0090    0.0017   -0.0227   -0.0173
            Z     0.0196   -0.0254   -0.0003   -0.0167    0.0016   -0.0057

 FREQ(CM**-1)    502.94    506.02    507.27    511.66    513.04    513.04

 AT.   1 ZN X     0.0004    0.0000   -0.0006   -0.0002   -0.0006    0.0002
            Y    -0.0004    0.0000   -0.0006    0.0002   -0.0002    0.0006
            Z     0.0000    0.0008    0.0008    0.0000    0.0001   -0.0001
 AT.   2 ZN X    -0.0004   -0.0000    0.0006    0.0002   -0.0006    0.0002
            Y     0.0004   -0.0000    0.0006   -0.0002   -0.0002    0.0006
            Z     0.0000    0.0008    0.0008    0.0000   -0.0001    0.0001
 AT.   3 ZN X     0.0004    0.0000    0.0006    0.0002   -0.0006   -0.0002
            Y     0.0004   -0.0000   -0.0006    0.0002    0.0002    0.0006
            Z     0.0000   -0.0008    0.0008    0.0000   -0.0001   -0.0001
 AT.   4 ZN X    -0.0004   -0.0000   -0.0006   -0.0002   -0.0006   -0.0002
            Y    -0.0004    0.0000    0.0006   -0.0002    0.0002    0.0006
            Z     0.0000   -0.0008    0.0008    0.0000    0.0001    0.0001
 AT.   5 P  X    -0.0142    0.0129   -0.0026    0.0005    0.0096   -0.0042
            Y    -0.0059    0.0113    0.0173    0.0184    0.0088    0.0209
            Z     0.0160   -0.0113   -0.0066   -0.0048   -0.0088   -0.0049
 AT.   6 P  X     0.0142   -0.0129    0.0026   -0.0005    0.0096   -0.0042
            Y     0.0059   -0.0113   -0.0173   -0.0184    0.0088    0.0209
            Z     0.0160   -0.0113   -0.0066   -0.0048    0.0088    0.0049
 AT.   7 P  X    -0.0142    0.0129    0.0026   -0.0005    0.0096    0.0042
            Y     0.0059   -0.0113    0.0173    0.0184   -0.0088    0.0209
            Z    -0.0160    0.0113   -0.0066   -0.0048    0.0088   -0.0049
 AT.   8 P  X     0.0142   -0.0129   -0.0026    0.0005    0.0096    0.0042
            Y    -0.0059    0.0113   -0.0173   -0.0184   -0.0088    0.0209
            Z    -0.0160    0.0113   -0.0066   -0.0048   -0.0088    0.0049
 AT.   9 P  X     0.0059    0.0113    0.0173   -0.0184   -0.0209   -0.0088
            Y     0.0142    0.0129   -0.0026   -0.0005    0.0042   -0.0096
            Z    -0.0160   -0.0113   -0.0066    0.0048    0.0049    0.0088
 AT.  10 P  X    -0.0059   -0.0113   -0.0173    0.0184   -0.0209   -0.0088
            Y    -0.0142   -0.0129    0.0026    0.0005    0.0042   -0.0096
            Z    -0.0160   -0.0113   -0.0066    0.0048   -0.0049   -0.0088
 AT.  11 P  X    -0.0059   -0.0113    0.0173   -0.0184   -0.0209    0.0088
            Y     0.0142    0.0129    0.0026    0.0005   -0.0042   -0.0096
            Z     0.0160    0.0113   -0.0066    0.0048    0.0049   -0.0088
 AT.  12 P  X     0.0059    0.0113   -0.0173    0.0184   -0.0209    0.0088
            Y    -0.0142   -0.0129   -0.0026   -0.0005   -0.0042   -0.0096
            Z     0.0160    0.0113   -0.0066    0.0048   -0.0049    0.0088
 AT.  13 P  X     0.0172    0.0172    0.0211   -0.0241    0.0267    0.0101
            Y     0.0133    0.0153    0.0114   -0.0009    0.0112    0.0141
            Z     0.0003    0.0020    0.0057   -0.0024    0.0036    0.0033
 AT.  14 P  X    -0.0172   -0.0172   -0.0211    0.0241    0.0267    0.0101
            Y    -0.0133   -0.0153   -0.0114    0.0009    0.0112    0.0141
            Z     0.0003    0.0020    0.0057   -0.0024   -0.0036   -0.0033
 AT.  15 P  X     0.0172    0.0172   -0.0211    0.0241    0.0267   -0.0101
            Y    -0.0133   -0.0153    0.0114   -0.0009   -0.0112    0.0141
            Z    -0.0003   -0.0020    0.0057   -0.0024   -0.0036    0.0033
 AT.  16 P  X    -0.0172   -0.0172    0.0211   -0.0241    0.0267   -0.0101
            Y     0.0133    0.0153   -0.0114    0.0009   -0.0112    0.0141
            Z    -0.0003   -0.0020    0.0057   -0.0024    0.0036   -0.0033
 AT.  17 P  X    -0.0133    0.0153    0.0114    0.0009   -0.0141   -0.0112
            Y    -0.0172    0.0172    0.0211    0.0241   -0.0101   -0.0267
            Z    -0.0003    0.0020    0.0057    0.0024   -0.0033   -0.0036
 AT.  18 P  X     0.0133   -0.0153   -0.0114   -0.0009   -0.0141   -0.0112
            Y     0.0172   -0.0172   -0.0211   -0.0241   -0.0101   -0.0267
            Z    -0.0003    0.0020    0.0057    0.0024    0.0033    0.0036
 AT.  19 P  X     0.0133   -0.0153    0.0114    0.0009   -0.0141    0.0112
            Y    -0.0172    0.0172   -0.0211   -0.0241    0.0101   -0.0267
            Z     0.0003   -0.0020    0.0057    0.0024   -0.0033    0.0036
 AT.  20 P  X    -0.0133    0.0153   -0.0114   -0.0009   -0.0141    0.0112
            Y     0.0172   -0.0172    0.0211    0.0241    0.0101   -0.0267
            Z     0.0003   -0.0020    0.0057    0.0024    0.0033   -0.0036

 *******************************************************************************

 VIBRATIONAL TEMPERATURES (K) [MODE NUMBER;IRREP]

 TO MODES
    58.2 [   4;B1 ]    84.8 [   5;A2 ]    88.5 [   6;E  ]    88.5 [   7;E  ]
   108.5 [   8;A1 ]   119.2 [   9;B2 ]   152.6 [  10;B1 ]   180.6 [  11;A2 ]
   183.0 [  12;E  ]   183.0 [  13;E  ]   202.9 [  14;B1 ]   205.6 [  15;A2 ]
   215.1 [  16;A1 ]   217.2 [  17;E  ]   217.2 [  18;E  ]   244.6 [  19;E  ]
   244.6 [  20;E  ]   259.1 [  21;E  ]   259.1 [  22;E  ]   278.6 [  23;B2 ]
   282.0 [  24;B1 ]   326.9 [  25;E  ]   326.9 [  26;E  ]   351.0 [  27;B1 ]
   378.3 [  28;A2 ]   382.8 [  29;A1 ]   393.7 [  30;E  ]   393.7 [  31;E  ]
   403.5 [  32;B2 ]   424.6 [  33;B1 ]   429.7 [  34;E  ]   429.7 [  35;E  ]
   438.1 [  36;A1 ]   455.0 [  37;A2 ]   458.6 [  38;B2 ]   472.4 [  39;E  ]
   472.4 [  40;E  ]   617.7 [  41;A1 ]   621.8 [  42;E  ]   621.8 [  43;E  ]
   622.5 [  44;B1 ]   658.1 [  45;A1 ]   659.4 [  46;E  ]   659.4 [  47;E  ]
   663.4 [  48;B2 ]   687.3 [  49;B2 ]   691.9 [  50;E  ]   691.9 [  51;E  ]
   694.5 [  52;A2 ]   722.7 [  53;E  ]   722.7 [  54;E  ]   723.6 [  55;A1 ]
   728.1 [  56;B1 ]   729.8 [  57;A2 ]   736.2 [  58;B2 ]   738.1 [  59;E  ]
   738.1 [  60;E  ]

 *******************************************************************************

 HARMONIC VIBRATIONAL CONTRIBUTIONS TO THERMODYNAMIC FUNCTIONS AT GIVEN
 TEMPERATURE AND PRESSURE:

 (EL = ELECTRONIC ENERGY
  E0 = ZERO-POINT ENERGY
  ET = THERMAL CONTRIBUTION TO THE VIBRATIONAL ENERGY
  PV = PRESSURE * VOLUME
  TS = TEMPERATURE * ENTROPY)

                          AU/CELL             EV/CELL                 KJ/MOL
 EL            :  -12576.648424386867 -342228.002162996912   -33019985.78486780
 E0            :       0.038222100687       1.040076236159         100.35211121


 *******************************************************************************

 THERMODYNAMIC FUNCTIONS WITH VIBRATIONAL CONTRIBUTIONS

 AT (T =  298.15 K, P =   0.10132500E+00 MPA):

                          AU/CELL             EV/CELL                 KJ/MOL
 ET            :       0.026330798356       0.716497449299          69.13150134
 PV            :       0.000008419161       0.000229097026           0.02210450
 TS            :       0.049880603791       1.357320233994         130.96150680
 ET+PV-TS      :      -0.023541386274      -0.640593687668         -61.80790095
 EL+E0+ET+PV-TS:  -12576.633743672453 -342227.602680448443   -33019947.24065754

 OTHER THERMODYNAMIC FUNCTIONS:

                      mHARTREE/(CELL*K)     mEV/(CELL*K)              J/(MOL*K)
 ENTROPY       :       0.167300364888       4.552474371939         439.24704611
 HEAT CAPACITY :       0.149003167011       4.054582305354         391.20775986

 *******************************************************************************
 TTTTTTTTTTTTTTTTTTTTTTTTTTTTTT END         TELAPSE     6135.06 TCPU     6072.46
 EEEEEEEEEE TERMINATION  DATE 05 09 2023 TIME 19:50:44.5
