         256 PROCESSORS WORKING

         
 *******************************************************************************
 *                                                                             *
 *                               CRYSTAL23                                     *
 *                      public : 1.0.1 - October 2022                          *
 *                       HTTP://WWW.CRYSTAL.UNITO.IT                           *
 *                                                                             *
 *                              MAIN AUTHORS                                   *
 *                                                                             *
 *  R. DOVESI(1,11), V.R. SAUNDERS(2), C. ROETTI(1,11), R. ORLANDO(1,11),      *
 *  C.M. ZICOVICH-WILSON(1,3), F. PASCALE(4), B. CIVALLERI(1,11),              *
 *  K. DOLL(5), N.M. HARRISON(6), I.J. BUSH(7), Ph. D'ARCO(8),                 *
 *  M. LLUNELL(9), M. CAUSA'(10), Y. NOEL(8), L. MASCHIO(1,11), A. ERBA(1,11)  *
 *  M. RE'RAT(14), S. CASASSA(1,11), B.G. SEARLE(2), J.K. DESMARAIS(1)         *
 *                                                                             *
 *        CONTRIBUTIONS TO THE CODE HAVE ALSO BEEN GIVEN BY                    *
 *                                                                             *
 *  M. FERRABONE(1,11), M. DE LA PIERRE(1,11), M. FERRERO(1,11),               *
 *  J. BAIMA(1,11), E. ALBANESE(1,11), M.F. PEINTINGER(12), R. BAST(13),       *
 *  B. KIRTMAN(15), V. LACIVITA(1,11), R. DEMICHELIS(1,16)                     *
 *  G. BRANDEBURG(17), S. SALUSTRO(1,11), G. SANSONE(1,11)                     *
 *  M.T. RUGGIERO(18), L.E. DAGA(1), L. DONA'(1), A. COSSARD(1)                *
 *                                                                             *
 * (1) THEORETICAL CHEMISTRY GROUP - UNIVERSITA' DI TORINO - TORINO (ITALY)    *
 * (2) SCIENTIFIC COMPUTING DEPARTMENT - STFC DARESBURY (UK)                   *
 * (3) UNIVERSIDAD AUTONOMA DEL ESTADO DE MORELOS - CUERNAVACA (MEXICO)        *
 * (4) UNIVERSITE' DE LORRAINE - NANCY (FRANCE)                                *
 * (5) UNIVERSITAET STUTTGART- STUTTGART (GERMANY)                             *
 * (6) IMPERIAL COLLEGE - LONDON (UK)                                          *
 * (7) SCIENTIFIC COMPUTING DEPARTMENT - STFC RAL (UK)                         *
 * (8) UPMC - SORBONNE UNIVERSITES - PARIS (FRANCE)                            *
 * (9) UNIVERSIDAD DE BARCELONA - BARCELONA (SPAIN)                            *
 *(10) UNIVERSITA' DI NAPOLI "FEDERICO II" - NAPOLI (ITALY)                    *
 *(11) NIS - NANOSTRUCTURED INTERFACES AND SURFACES - TORINO (ITALY)           *
 *(12) MPI FUER CHEMISCHE ENERGIEKONVERSION - MUELHEIM AN DER RUHR (GERMANY)   *
 *(13) UNIVERSITY OF TROMSO - TROMSO (NORWAY)                                  *
 *(14) UNIVERSITE' DE PAU ET DES PAYS DE L'ADOUR - PAU (FRANCE)                *
 *(15) UNIVERSITY OF CALIFORNIA SANTA BARBARA - SANTA BARBARA (USA)            *
 *(16) CURTIN UNIVERSITY - PERTH (AUSTRALIA)                                   *
 *(17) UNIVERSITY COLLEGE LONDON - LONDON (UK)                                 *
 *(18) UNIVERSITY OF VERMONT - BURLINGTON (USA)                                *
 *                                                                             *
 *******************************************************************************
 EEEEEEEEEE STARTING  DATE 25 07 2023 TIME 17:05:20.9
 ICSD_CollCode257372.cif                                                         

 CRYSTAL CALCULATION
 (INPUT ACCORDING TO THE INTERNATIONAL TABLES FOR X-RAY CRYSTALLOGRAPHY)
 CRYSTAL FAMILY                       :  CUBIC       
 CRYSTAL CLASS  (GROTH - 1921)        :  CUBIC HEXAKISOCTAHEDRAL              

 SPACE GROUP (CENTROSYMMETRIC)        :  F M 3 M         

 LATTICE PARAMETERS  (ANGSTROMS AND DEGREES) - CONVENTIONAL CELL
        A           B           C        ALPHA        BETA       GAMMA
     4.61549     4.61549     4.61549    90.00000    90.00000    90.00000


 NUMBER OF IRREDUCIBLE ATOMS IN THE CONVENTIONAL CELL:    2

 INPUT COORDINATES

 ATOM AT. N.              COORDINATES
   1   3     2.500000000000E-01  2.500000000000E-01  7.500000000000E-01
   2   8     0.000000000000E+00  0.000000000000E+00  0.000000000000E+00

 *******************************************************************************

 << INFORMATION >>: FROM NOW ON, ALL COORDINATES REFER TO THE PRIMITIVE CELL

 *******************************************************************************

 LATTICE PARAMETERS  (ANGSTROMS AND DEGREES) - PRIMITIVE CELL
       A          B          C        ALPHA      BETA     GAMMA        VOLUME
    3.26364    3.26364    3.26364    60.00000  60.00000  60.00000     24.580655

 COORDINATES OF THE EQUIVALENT ATOMS (FRACTIONAL UNITS)

 N. ATOM EQUIV AT. N.          X                  Y                  Z

   1   1   1    3 LI   -2.50000000000E-01 -2.50000000000E-01 -2.50000000000E-01
   2   1   2    3 LI    2.50000000000E-01  2.50000000000E-01  2.50000000000E-01

   3   2   1    8 O     0.00000000000E+00  0.00000000000E+00  0.00000000000E+00

 NUMBER OF SYMMETRY OPERATORS         :   48
 *******************************************************************************
 * GEOMETRY EDITING - INPUT COORDINATES ARE GIVEN IN ANGSTROM         
 *******************************************************************************

 GEOMETRY NOW FULLY CONSISTENT WITH THE GROUP

 FRQFRQFRQFRQFRQFRQFRQFRQFRQFRQFRQFRQFRQFRQFRQFRQFRQFRQFRQFRQFRQFRQFRQFRQFRQFRQ

                       FREQUENCY CALCULATION

 OPTIMIZATION PERFORMED BEFORE FREQUENCIES CALCULATION
 *******************************************************************************
 INFORMATION **** NEW DEFAULT **** FINALRUN 4 FOR GEOMETRY OPTIMIZATIONS
 INFORMATION **** NEW DEFAULT **** OPTGEOM OPTIMIZES ATOMIC COORDINATES ONLY
 INFORMATION **** NEW DEFAULT **** TOL. ON ATOMIC DISP TO REDEFINE REF. GEOMETRY: 0.8 Angs
 INFORMATION **** NEW DEFAULT **** N POINTS TO REDEFINE REF. GEOMETRY: N OF OPT DEGS OF FREEDOM
 INFORMATION **** NEW DEFAULT **** TOL. ON ENERGY TO REDEFINE REF. GEOMETRY: 10**-3*(5*N. ATOMS)
 INFORMATION **** FULLOPTG **** FULL OPTIMIZATION (ATOMS AND CELL PARAMETERS)

 IMPORTANT INFORMATION:
 THE COORDINATE SYSTEM ADOPTED IN THE OPTIMIZATION IS NOT IN
 GENERAL HOMOGENEOUS UNITS. FOR THIS REASON THE GRADIENT AND 
 HESSIAN MATRIX IN TERMS OF THIS SYSTEM ARE GIVEN WITHOUT
 UNITS. FOR MORE DETAILS SEE THE MANUAL.

 *******************************************************************************
 COMBINED CELL/ATOM OPTIMIZATION CONTROL

 INITIAL TRUST RADIUS         0.50000 MAXIMUM TRUST RADIUS               0.50000
 MAXIMUM GRADIENT COMPONENT   0.00005 MAXIMUM DISPLACEMENT COMPONENT     0.00018
 R.M.S. OF GRADIENT COMPONENT 0.00003 R.M.S. OF DISPLACEMENT COMPONENTS  0.00012
 THRESHOLD ON ENERGY CHANGE 0.100E-06 EXTRAPOLATING POLYNOMIAL ORDER           2
 MAXIMUM ALLOWED NUMBER OF STEPS   -1 SORTING OF ENERGY POINTS:               NO
 ANALYTICAL  GRADIENT                 HESSIAN UPDATING                      BFGS
 STEP SIZE NUMERICAL GRADIENT 0.00100
 INITIAL HESSIAN MATRIX: SCHLEGEL MODEL 2
 *******************************************************************************

 INFORMATION **** INPFREQ **** IR INTENSITIES EVALUATED THROUGH CPHF APPROACH
 INFORMATION **** INPFREQ **** NEW DEFAULT - IMPOSING ECKART CONDITIONS TO THE HESSIAN

 GCALCO - MAX INDICES DIRECT LATTICE VECTOR    14    14    14
 NO.OF VECTORS CREATED 6999 STARS  105 RMAX    65.26956 BOHR

 GEOMETRY FOR WAVE FUNCTION - DIMENSIONALITY OF THE SYSTEM    3
 (NON PERIODIC DIRECTION: LATTICE PARAMETER FORMALLY SET TO 500)
 *******************************************************************************
 LATTICE PARAMETERS (ANGSTROMS AND DEGREES) - BOHR = 0.5291772083 ANGSTROM
 PRIMITIVE CELL - CENTRING CODE 5/0 VOLUME=    24.580655 - DENSITY  2.028 g/cm^3
         A              B              C           ALPHA      BETA       GAMMA 
     3.26364428     3.26364428     3.26364428    60.000000  60.000000  60.000000
 *******************************************************************************
 ATOMS IN THE ASYMMETRIC UNIT    2 - ATOMS IN THE UNIT CELL:    3
     ATOM                 X/A                 Y/B                 Z/C    
 *******************************************************************************
      1 T   3 LI   -2.500000000000E-01 -2.500000000000E-01 -2.500000000000E-01
      2 F   3 LI    2.500000000000E-01  2.500000000000E-01  2.500000000000E-01
      3 T   8 O     0.000000000000E+00  0.000000000000E+00  0.000000000000E+00

 TRANSFORMATION MATRIX PRIMITIVE-CRYSTALLOGRAPHIC CELL
 -1.0000  1.0000  1.0000  1.0000 -1.0000  1.0000  1.0000  1.0000 -1.0000

 *******************************************************************************
 CRYSTALLOGRAPHIC CELL (VOLUME=         98.32262009)
         A              B              C           ALPHA      BETA       GAMMA 
     4.61549000     4.61549000     4.61549000    90.000000  90.000000  90.000000

 COORDINATES IN THE CRYSTALLOGRAPHIC CELL
     ATOM                 X/A                 Y/B                 Z/C    
 *******************************************************************************
      1 T   3 LI   -2.500000000000E-01 -2.500000000000E-01 -2.500000000000E-01
      2 F   3 LI    2.500000000000E-01 -2.500000000000E-01 -2.500000000000E-01
      3 T   8 O     0.000000000000E+00  0.000000000000E+00  0.000000000000E+00

 T = ATOM BELONGING TO THE ASYMMETRIC UNIT

 ****   48 SYMMOPS - TRANSLATORS IN FRACTIONAL UNITS
 **** MATRICES AND TRANSLATORS IN THE CRYSTALLOGRAPHIC REFERENCE FRAME
   V INV                    ROTATION MATRICES                   TRANSLATORS
   1   1  1.00  0.00  0.00  0.00  1.00  0.00  0.00  0.00  1.00  0.00  0.00  0.00
   2   2 -0.00  1.00  0.00  1.00 -0.00 -0.00 -1.00 -1.00 -1.00  0.00  0.00  0.00
   3   3 -1.00 -1.00 -1.00  0.00  0.00  1.00 -0.00  1.00  0.00  0.00  0.00  0.00
   4   4  0.00  0.00  1.00 -1.00 -1.00 -1.00  1.00 -0.00 -0.00  0.00  0.00  0.00
   5   6 -0.00 -0.00  1.00  1.00  0.00 -0.00  0.00  1.00  0.00  0.00  0.00  0.00
   6   5 -0.00  1.00 -0.00  0.00 -0.00  1.00  1.00  0.00  0.00  0.00  0.00  0.00
   7   8  1.00  0.00 -0.00 -0.00 -0.00  1.00 -1.00 -1.00 -1.00  0.00  0.00  0.00
   8   7  1.00  0.00  0.00 -1.00 -1.00 -1.00 -0.00  1.00 -0.00  0.00  0.00  0.00
   9  10 -1.00 -1.00 -1.00  0.00  1.00  0.00  1.00  0.00 -0.00  0.00  0.00  0.00
  10   9  0.00 -0.00  1.00 -0.00  1.00 -0.00 -1.00 -1.00 -1.00  0.00  0.00  0.00
  11  12  0.00  1.00  0.00 -1.00 -1.00 -1.00 -0.00 -0.00  1.00  0.00  0.00  0.00
  12  11 -1.00 -1.00 -1.00  1.00  0.00  0.00  0.00 -0.00  1.00  0.00  0.00  0.00
  13  13  0.00 -1.00  0.00 -1.00  0.00 -0.00 -0.00 -0.00 -1.00  0.00  0.00  0.00
  14  14 -1.00  0.00 -0.00  0.00 -1.00  0.00  1.00  1.00  1.00  0.00  0.00  0.00
  15  16 -0.00 -0.00 -1.00  1.00  1.00  1.00  0.00 -1.00  0.00  0.00  0.00  0.00
  16  15  1.00  1.00  1.00 -0.00 -0.00 -1.00 -1.00  0.00 -0.00  0.00  0.00  0.00
  17  17 -1.00  0.00  0.00  0.00 -0.00 -1.00 -0.00 -1.00 -0.00  0.00  0.00  0.00
  18  18  0.00  0.00 -1.00 -0.00 -1.00  0.00 -1.00 -0.00 -0.00  0.00  0.00  0.00
  19  21  0.00 -0.00 -1.00 -1.00  0.00  0.00  1.00  1.00  1.00  0.00  0.00  0.00
  20  22  1.00  1.00  1.00 -1.00 -0.00 -0.00 -0.00 -1.00  0.00  0.00  0.00  0.00
  21  19 -0.00 -1.00 -0.00  1.00  1.00  1.00 -1.00  0.00  0.00  0.00  0.00  0.00
  22  20 -0.00 -1.00  0.00  0.00  0.00 -1.00  1.00  1.00  1.00  0.00  0.00  0.00
  23  23  1.00  1.00  1.00 -0.00 -1.00 -0.00  0.00 -0.00 -1.00  0.00  0.00  0.00
  24  24 -1.00 -0.00 -0.00  1.00  1.00  1.00  0.00  0.00 -1.00  0.00  0.00  0.00
  25  25 -1.00  0.00  0.00  0.00 -1.00 -0.00 -0.00 -0.00 -1.00  0.00  0.00  0.00
  26  26  0.00 -1.00 -0.00 -1.00  0.00  0.00  1.00  1.00  1.00  0.00  0.00  0.00
  27  27  1.00  1.00  1.00 -0.00 -0.00 -1.00  0.00 -1.00 -0.00  0.00  0.00  0.00
  28  28 -0.00 -0.00 -1.00  1.00  1.00  1.00 -1.00  0.00  0.00  0.00  0.00  0.00
  29  30  0.00  0.00 -1.00 -1.00 -0.00  0.00 -0.00 -1.00 -0.00  0.00  0.00  0.00
  30  29  0.00 -1.00  0.00 -0.00  0.00 -1.00 -1.00 -0.00 -0.00  0.00  0.00  0.00
  31  32 -1.00 -0.00  0.00  0.00  0.00 -1.00  1.00  1.00  1.00  0.00  0.00  0.00
  32  31 -1.00 -0.00 -0.00  1.00  1.00  1.00  0.00 -1.00  0.00  0.00  0.00  0.00
  33  34  1.00  1.00  1.00 -0.00 -1.00 -0.00 -1.00 -0.00  0.00  0.00  0.00  0.00
  34  33 -0.00  0.00 -1.00  0.00 -1.00  0.00  1.00  1.00  1.00  0.00  0.00  0.00
  35  36 -0.00 -1.00 -0.00  1.00  1.00  1.00  0.00  0.00 -1.00  0.00  0.00  0.00
  36  35  1.00  1.00  1.00 -1.00 -0.00 -0.00 -0.00  0.00 -1.00  0.00  0.00  0.00
  37  37 -0.00  1.00 -0.00  1.00 -0.00  0.00  0.00  0.00  1.00  0.00  0.00  0.00
  38  38  1.00 -0.00  0.00 -0.00  1.00 -0.00 -1.00 -1.00 -1.00  0.00  0.00  0.00
  39  40  0.00  0.00  1.00 -1.00 -1.00 -1.00 -0.00  1.00 -0.00  0.00  0.00  0.00
  40  39 -1.00 -1.00 -1.00  0.00  0.00  1.00  1.00 -0.00  0.00  0.00  0.00  0.00
  41  41  1.00 -0.00 -0.00 -0.00  0.00  1.00  0.00  1.00  0.00  0.00  0.00  0.00
  42  42 -0.00 -0.00  1.00  0.00  1.00 -0.00  1.00  0.00  0.00  0.00  0.00  0.00
  43  45 -0.00  0.00  1.00  1.00 -0.00 -0.00 -1.00 -1.00 -1.00  0.00  0.00  0.00
  44  46 -1.00 -1.00 -1.00  1.00  0.00  0.00  0.00  1.00 -0.00  0.00  0.00  0.00
  45  43  0.00  1.00  0.00 -1.00 -1.00 -1.00  1.00 -0.00 -0.00  0.00  0.00  0.00
  46  44  0.00  1.00 -0.00 -0.00 -0.00  1.00 -1.00 -1.00 -1.00  0.00  0.00  0.00
  47  47 -1.00 -1.00 -1.00  0.00  1.00  0.00 -0.00  0.00  1.00  0.00  0.00  0.00
  48  48  1.00  0.00  0.00 -1.00 -1.00 -1.00 -0.00 -0.00  1.00  0.00  0.00  0.00

 DIRECT LATTICE VECTORS CARTESIAN COMPONENTS (ANGSTROM)
          X                    Y                    Z
   0.000000000000E+00   0.230774500000E+01   0.230774500000E+01
   0.230774500000E+01   0.000000000000E+00   0.230774500000E+01
   0.230774500000E+01   0.230774500000E+01   0.000000000000E+00


 CARTESIAN COORDINATES - PRIMITIVE CELL
 *******************************************************************************
 *      ATOM          X(ANGSTROM)         Y(ANGSTROM)         Z(ANGSTROM)
 *******************************************************************************
    1     3 LI   -1.153872500000E+00 -1.153872500000E+00 -1.153872500000E+00
    2     3 LI    1.153872500000E+00 -1.153872500000E+00 -1.153872500000E+00
    3     8 O     0.000000000000E+00  0.000000000000E+00  0.000000000000E+00

 *******************************************************************************
 LOCAL ATOMIC FUNCTIONS BASIS SET
 *******************************************************************************
   ATOM   X(AU)   Y(AU)   Z(AU)  N. TYPE  EXPONENT  S COEF   P COEF   D/F/G COEF
 *******************************************************************************
   1 LI  -2.181  -2.181  -2.181
                                  1 S  
                                         6.269E+03 2.054E-04 0.000E+00 0.000E+00
                                         9.403E+02 1.592E-03 0.000E+00 0.000E+00
                                         2.142E+02 8.287E-03 0.000E+00 0.000E+00
                                         6.076E+01 3.386E-02 0.000E+00 0.000E+00
                                         1.992E+01 1.110E-01 0.000E+00 0.000E+00
                                         7.317E+00 2.745E-01 0.000E+00 0.000E+00
                                  2 S  
                                         2.972E+00 2.379E-01 0.000E+00 0.000E+00
                                         1.264E+00 3.077E-01 0.000E+00 0.000E+00
                                  3 S  
                                         5.026E-01 1.000E+00 0.000E+00 0.000E+00
                                  4 S  
                                         1.201E-01 1.000E+00 0.000E+00 0.000E+00
                           5-     7 P  
                                         1.320E-01 0.000E+00 1.000E+00 0.000E+00
   2 LI   2.181  -2.181  -2.181
   3 O    0.000   0.000   0.000
                                 15 S  
                                         2.703E+04 2.173E-04 0.000E+00 0.000E+00
                                         4.052E+03 1.684E-03 0.000E+00 0.000E+00
                                         9.223E+02 8.740E-03 0.000E+00 0.000E+00
                                         2.612E+02 3.524E-02 0.000E+00 0.000E+00
                                         8.535E+01 1.115E-01 0.000E+00 0.000E+00
                                         3.104E+01 2.559E-01 0.000E+00 0.000E+00
                                 16 S  
                                         1.226E+01 3.977E-01 0.000E+00 0.000E+00
                                         4.999E+00 2.463E-01 0.000E+00 0.000E+00
                                 17 S  
                                         1.099E+00 1.000E+00 0.000E+00 0.000E+00
                                 18 S  
                                         3.566E-01 1.000E+00 0.000E+00 0.000E+00
                          19-    21 P  
                                         6.327E+01 0.000E+00 6.069E-03 0.000E+00
                                         1.463E+01 0.000E+00 4.191E-02 0.000E+00
                                         4.450E+00 0.000E+00 1.615E-01 0.000E+00
                                         1.528E+00 0.000E+00 3.571E-01 0.000E+00
                          22-    24 P  
                                         5.490E-01 0.000E+00 1.000E+00 0.000E+00
                          25-    27 P  
                                         1.859E-01 0.000E+00 1.000E+00 0.000E+00
                          28-    32 D  
                                         4.535E-01 0.000E+00 0.000E+00 1.000E+00
 INFORMATION **** SET_MPP **** PCRYSTAL CALCULATION
 INFORMATION **** READM2 **** NEW DEFAULT: FOCK/KS MATRIX MIXING SET TO 30 %
 INFORMATION **** READM2 **** NEW DEFAULT: FULL DIRECT SCF MODE
 INFORMATION **** READM2 **** NEW DEFAULT: COULOMB BIPOLAR BUFFER SET TO 32 Mb
 INFORMATION **** READM2 **** NEW DEFAULT: EXCHANGE BIPOLAR BUFFER SET TO 32 Mb

 *******************************************************************************
 NEW DEFAULT: DFT INTEGRATION GRID INCREASED TO XLGRID
 NEW DEFAULT: DIIS ACCELERATOR ACTIVE
 USE KEYWORD NODIIS TO TURN IT OFF
 *******************************************************************************

 INFORMATION **** RDDFTP **** MAX N. OF POINTS ALLOWED IN A BATCH FOR NUMERICAL INTEGRATION         200
 INFORMATION **** TOLINTEG **** COULOMB AND EXCHANGE SERIES TOLERANCES MODIFIED
 INFORMATION **** TOLDEE **** SCF TOL ON TOTAL ENERGY SET TO          11
 INFORMATION **** EXCHSIZE **** EXCHANGE BIPOLAR BUFFER SIZE SET TO    12012489
 INFORMATION **** MAXCYCLE **** MAX NUMBER OF SCF CYCLES SET TO         150
 *******************************************************************************
 N. OF ATOMS PER CELL         3  COULOMB OVERLAP TOL         (T1) 10**   -7
 NUMBER OF SHELLS            18  COULOMB PENETRATION TOL     (T2) 10**   -7
 NUMBER OF AO                32  EXCHANGE OVERLAP TOL        (T3) 10**   -7
 N. OF ELECTRONS PER CELL    14  EXCHANGE PSEUDO OVP (F(G))  (T4) 10**   -9
 CORE ELECTRONS PER CELL      6  EXCHANGE PSEUDO OVP (P(G))  (T5) 10**  -30
 N. OF SYMMETRY OPERATORS    48  POLE ORDER IN MONO ZONE                  4
 *******************************************************************************
 TYPE OF CALCULATION :  RESTRICTED CLOSED SHELL
 KOHN-SHAM HAMILTONIAN

 (EXCHANGE)[CORRELATION] FUNCTIONAL:(PERDEW-BURKE-ERNZERHOF)[PERDEW-BURKE-ERNZERHOF]


 HYBRID EXCHANGE - PERCENTAGE OF FOCK EXCHANGE    25.0000

 CAPPA:IS1  8;IS2  8;IS3  8; K PTS MONK NET  29; SYMMOPS:K SPACE  48;G SPACE  48

 *******************************************************************************
 MAX NUMBER OF SCF CYCLES     150  CONVERGENCE ON DELTAP        10**-21
 WEIGHT OF F(I) IN F(I+1)      30% CONVERGENCE ON ENERGY        10**-11
 SHRINK. FACT.(MONKH.)    8  8  8  NUMBER OF K POINTS IN THE IBZ     29
 SHRINKING FACTOR(GILAT NET)    8  NUMBER OF K POINTS(GILAT NET)     29
 *******************************************************************************
 *** K POINTS COORDINATES (OBLIQUE COORDINATES IN UNITS OF IS =  8)
   1-R(  0  0  0)   2-C(  1  0  0)   3-C(  2  0  0)   4-C(  3  0  0)
   5-R(  4  0  0)   6-C(  1  1  0)   7-C(  2  1  0)   8-C(  3  1  0)
   9-C(  4  1  0)  10-C(  5  1  0)  11-C(  6  1  0)  12-C(  7  1  0)
  13-C(  2  2  0)  14-C(  3  2  0)  15-C(  4  2  0)  16-C(  5  2  0)
  17-C(  6  2  0)  18-C(  3  3  0)  19-C(  4  3  0)  20-C(  5  3  0)
  21-R(  4  4  0)  22-C(  3  2  1)  23-C(  4  2  1)  24-C(  5  2  1)
  25-C(  4  3  1)  26-C(  5  3  1)  27-C(  6  3  1)  28-C(  5  4  1)
  29-C(  6  4  2)

 DIRECT LATTICE VECTORS COMPON. (A.U.)     RECIP. LATTICE VECTORS COMPON. (A.U.) 
        X            Y            Z              X            Y            Z
    0.0000000    4.3610060    4.3610060     -0.7203826    0.7203826    0.7203826
    4.3610060    0.0000000    4.3610060      0.7203826   -0.7203826    0.7203826
    4.3610060    4.3610060    0.0000000      0.7203826    0.7203826   -0.7203826

 DISK SPACE FOR EIGENVECTORS (FTN 10)       56320 REALS

 SYMMETRY ADAPTION OF THE BLOCH FUNCTIONS ENABLED
 TTTTTTTTTTTTTTTTTTTTTTTTTTTTTT gordsh1     TELAPSE        3.99 TCPU        1.78

 MATRIX SIZE: P(G)  293406, F(G)   23821, P(G) IRR    6426, F(G) IRR    1568
 MAX G-VECTOR INDEX FOR 1- AND 2-ELECTRON INTEGRALS1385

 TTTTTTTTTTTTTTTTTTTTTTTTTTTTTT INPUT       TELAPSE        4.00 TCPU        1.79

 NEIGHBORS OF THE NON-EQUIVALENT ATOMS

 N = NUMBER OF NEIGHBORS AT DISTANCE R
    ATOM  N     R/ANG      R/AU   NEIGHBORS (ATOM LABELS AND CELL INDICES)
   1 LI   4     1.9986     3.7767    3 O    0 0 0    3 O   -1 0 0    3 O    0-1 0
                                     3 O    0 0-1
   1 LI   6     2.3077     4.3610    2 LI   0 0 0    2 LI   1 0-1    2 LI   1-1 0
                                     2 LI   0-1 0    2 LI   0 0-1    2 LI   1-1-1
   1 LI  12     3.2636     6.1674    1 LI  -1 0 0    1 LI   1 0 0    1 LI  -1 0 1
                                     1 LI   1 0-1    1 LI  -1 1 0    1 LI   1-1 0
                                     1 LI   0-1 0    1 LI   0 1 0    1 LI   0-1 1
                                     1 LI   0 1-1    1 LI   0 0-1    1 LI   0 0 1
   1 LI  12     3.8270     7.2319    3 O    1 0-1    3 O   -1 0 1    3 O    1-1 0
                                     3 O   -1 1 0    3 O    0 1-1    3 O    0-1 1
                                     3 O   -1-1 1    3 O   -1 1-1    3 O    1-1-1
                                     3 O   -1-1 0    3 O   -1 0-1    3 O    0-1-1
   1 LI   8     3.9971     7.5535    2 LI   1 0 0    2 LI  -1 0 0    2 LI   0 1-1
                                     2 LI   0-1 1    2 LI   2-1-1    2 LI   1 0-2
                                     2 LI   1-2 0    2 LI   0-1-1
   1 LI   6     4.6155     8.7220    1 LI  -1-1 1    1 LI   1 1-1    1 LI  -1 1-1
                                     1 LI   1-1 1    1 LI  -1 1 1    1 LI   1-1-1

   3 O    8     1.9986     3.7767    1 LI   0 0 0    1 LI   1 0 0    1 LI   0 1 0
                                     1 LI   0 0 1    2 LI   1 0 0    2 LI   1-1 0
                                     2 LI   0 0 0    2 LI   1 0-1
   3 O   12     3.2636     6.1674    3 O   -1 0 0    3 O    1 0 0    3 O   -1 0 1
                                     3 O    1 0-1    3 O   -1 1 0    3 O    1-1 0
                                     3 O    0-1 0    3 O    0 1 0    3 O    0-1 1
                                     3 O    0 1-1    3 O    0 0-1    3 O    0 0 1
   3 O   24     3.8270     7.2319    1 LI  -1 0 1    1 LI   1 0-1    1 LI  -1 1 0
                                     1 LI   1-1 0    1 LI   0-1 1    1 LI   0 1-1
                                     1 LI   1 1-1    1 LI   1-1 1    1 LI  -1 1 1
                                     1 LI   1 1 0    1 LI   1 0 1    1 LI   0 1 1
                                     2 LI   1 1-1    2 LI   1-1 1    2 LI   0 1 0
                                     2 LI   2-1 0    2 LI   2 0-1    2 LI   0 0 1
                                     2 LI   0-1 1    2 LI   2-1-1    2 LI   0 1-1
                                     2 LI   0-1 0    2 LI   1-1-1    2 LI   0 0-1
   3 O    6     4.6155     8.7220    3 O   -1-1 1    3 O    1 1-1    3 O   -1 1-1
                                     3 O    1-1 1    3 O   -1 1 1    3 O    1-1-1
   3 O   24     5.0296     9.5046    1 LI  -1 0 0    1 LI   0-1 0    1 LI   0 0-1
                                     1 LI   2 0-1    1 LI   2-1 0    1 LI  -1 0 2
                                     1 LI  -1 2 0    1 LI   0 2-1    1 LI   0-1 2
                                     1 LI   2 0 0    1 LI   0 2 0    1 LI   0 0 2
                                     2 LI   1 1 0    2 LI   2 0 0    2 LI   1 0 1
                                     2 LI   1-2 1    2 LI   2-2 0    2 LI   1 1-2
                                     2 LI  -1 1 0    2 LI  -1 0 1    2 LI   2 0-2
                                     2 LI   1-2 0    2 LI  -1 0 0    2 LI   1 0-2
   3 O   24     5.6528    10.6822    3 O   -2 0 1    3 O    2 0-1    3 O   -2 1 0
                                     3 O    2-1 0    3 O   -2 1 1    3 O    2-1-1
                                     3 O   -1-1 0    3 O    1 1 0    3 O   -1-1 2
                                     3 O    1 1-2    3 O   -1 0-1    3 O    1 0 1
                                     3 O   -1 0 2    3 O    1 0-2    3 O   -1 2-1
                                     3 O    1-2 1    3 O   -1 2 0    3 O    1-2 0
                                     3 O    0-2 1    3 O    0 2-1    3 O    0-1-1
                                     3 O    0 1 1    3 O    0-1 2    3 O    0 1-2


 SYMMETRY ALLOWED ELASTIC DISTORTION 1
  0.5773503  0.0000000  0.0000000
  0.0000000  0.5773503  0.0000000
  0.0000000  0.0000000  0.5773503

 THERE ARE NO SYMMETRY ALLOWED DIRECTIONS
 WARNING **** INT_SCREEN **** NO DEGREES OF FREEDOM TO OPTIMIZE.
 CONTINUING WITH FREQUENCIES CALCULATION

 WARNING **** INT_SCREEN **** CELL PARAMETERS OPTIMIZATION ONLY
 TTTTTTTTTTTTTTTTTTTTTTTTTTTTTT SYMM        TELAPSE        4.02 TCPU        1.81
 TTTTTTTTTTTTTTTTTTTTTTTTTTTTTT INT_SCREEN  TELAPSE        4.03 TCPU        1.81

 *******************************************************************************
 *                             OPTIMIZATION STARTS                             *
 *******************************************************************************
 RECLASIFICATION OF INDICES FOR INTEGRAL CALC ACCORDING TO DIFFERENT CRITERIA:
           FIXDELTE                  FIXDELTX              FIXDELTN
          0.10000000E-01           0.80000000                 10
 *******************************************************************************

 *******************************************************************************
 CELL OPTIMIZATION - POINT    1

 DFT PARAMETERS

     ATOM       ELECTRONS   NET CHARGE   R(ANGSTROM)
   1   3  LI      3.0000      0.0000     1.57000000
   3   8  O       8.0000      0.0000     0.74000000

 SIZE OF GRID=       2955
 TTTTTTTTTTTTTTTTTTTTTTTTTTTTTT MAKE_GRID2  TELAPSE        6.97 TCPU        4.75
 BECKE WEIGHT FUNCTION
 RADSAFE =     2.00
 TOLERANCES - DENSITY:10**- 6; POTENTIAL:10**- 9; GRID WGT:10**-14

 RADIAL INTEGRATION  - INTERVALS (POINTS,UPPER LIMIT):            1( 99,  4.0*R)

 ANGULAR INTEGRATION - INTERVALS (ACCURACY LEVEL [N. POINTS] UPPER LIMIT):
  1(  6[ 146]   0.2)  2( 11[ 302]   0.5)  3( 14[ 590]   0.9)  4( 18[1454]   3.5)
  5( 14[ 590]9999.0)
 TTTTTTTTTTTTTTTTTTTTTTTTTTTTTT INT_CALC    TELAPSE        7.01 TCPU        4.78

 *******************************************************************************
 ICSD_CollCode257372.cif                                                         
 CRYSTAL - SCF - TYPE OF CALCULATION :  RESTRICTED CLOSED SHELL
 *******************************************************************************

 CAPPA:IS1  8;IS2  8;IS3  8; K PTS MONK NET  29; SYMMOPS:K SPACE  48;G SPACE  48

 TTTTTTTTTTTTTTTTTTTTTTTTTTTTTT SDIK        TELAPSE        7.02 TCPU        4.79

 AAAAAAAAAAAAAAAAAAAAAAAAAAAAAAAAAAAAAAAAAAAAAAAAAAAAAAAAAAAAAAAAAAAAAAAAAAAAAAA
         ATOMIC WAVEFUNCTION(S)


 NUCLEAR CHARGE  3.0  SYMMETRY SPECIES            S
 N. ELECTRONS    3.0  NUMBER OF PRIMITIVE GTOS   10
                      NUMBER OF CONTRACTED GTOS   4
                      NUMBER OF CLOSED SHELLS     1
                      OPEN SHELL OCCUPATION       1

  ZNUC  SCFIT    TOTAL HF ENERGY   KINETIC ENERGY   VIRIAL THEOREM             ACCURACY
   3.0     6    -7.379265796E+00  7.680406116E+00 -1.960791094E+00  2.4E-06

 NUCLEAR CHARGE  8.0  SYMMETRY SPECIES            S    P
 N. ELECTRONS    8.0  NUMBER OF PRIMITIVE GTOS   10    6
                      NUMBER OF CONTRACTED GTOS   4    3
                      NUMBER OF CLOSED SHELLS     2    0
                      OPEN SHELL OCCUPATION       0    4

  ZNUC  SCFIT    TOTAL HF ENERGY   KINETIC ENERGY   VIRIAL THEOREM             ACCURACY
   8.0    13    -7.480300556E+01  7.484348362E+01 -1.999459164E+00  4.9E-06

 AAAAAAAAAAAAAAAAAAAAAAAAAAAAAAAAAAAAAAAAAAAAAAAAAAAAAAAAAAAAAAAAAAAAAAAAAAAAAAA

 TTTTTTTTTTTTTTTTTTTTTTTTTTTTTT MOQGAD      TELAPSE        7.03 TCPU        4.80
 TTTTTTTTTTTTTTTTTTTTTTTTTTTTTT SHELLXN     TELAPSE        9.10 TCPU        6.86
 TTTTTTTTTTTTTTTTTTTTTTTTTTTTTT MONMO3      TELAPSE        9.10 TCPU        6.86
 NUMERICALLY INTEGRATED DENSITY     14.0000672054
 TTTTTTTTTTTTTTTTTTTTTTTTTTTTTT NUMDFT      TELAPSE        9.25 TCPU        7.01
 CYC   0 ETOT(AU) -9.036172117619E+01 DETOT -9.04E+01 tst  0.00E+00 PX  1.00E+00
 TTTTTTTTTTTTTTTTTTTTTTTTTTTTTT DIIS        TELAPSE        9.25 TCPU        7.01
 TTTTTTTTTTTTTTTTTTTTTTTTTTTTTT FDIK        TELAPSE        9.26 TCPU        7.02
 INSULATING STATE
 TOP OF VALENCE BANDS -    BAND      7; K    1; EIG -3.8842434E-01 AU
 BOTTOM OF VIRTUAL BANDS - BAND      8; K    1; EIG -1.3584919E-01 AU
 DIRECT ENERGY BAND GAP:   6.8729 eV
 TTTTTTTTTTTTTTTTTTTTTTTTTTTTTT PDIG        TELAPSE        9.26 TCPU        7.02
 TTTTTTTTTTTTTTTTTTTTTTTTTTTTTT MOQGAD      TELAPSE        9.26 TCPU        7.02
 TTTTTTTTTTTTTTTTTTTTTTTTTTTTTT SHELLXN     TELAPSE       11.35 TCPU        9.10
 TTTTTTTTTTTTTTTTTTTTTTTTTTTTTT MONMO3      TELAPSE       11.35 TCPU        9.10
 NUMERICALLY INTEGRATED DENSITY     14.0000741149
 TTTTTTTTTTTTTTTTTTTTTTTTTTTTTT NUMDFT      TELAPSE       11.51 TCPU        9.26
 CYC   1 ETOT(AU) -9.028975212151E+01 DETOT  7.20E-02 tst  0.00E+00 PX  1.00E+00
 TTTTTTTTTTTTTTTTTTTTTTTTTTTTTT DIIS        TELAPSE       11.51 TCPU        9.26
 DIIS TEST: 0.55875E+00 AT SCF   CYCLE   1 - MIX   30 %
 TTTTTTTTTTTTTTTTTTTTTTTTTTTTTT FDIK        TELAPSE       11.52 TCPU        9.26
 INSULATING STATE
 TOP OF VALENCE BANDS -    BAND      7; K    1; EIG -1.8652084E-01 AU
 BOTTOM OF VIRTUAL BANDS - BAND      8; K    1; EIG  1.1069057E-02 AU
 DIRECT ENERGY BAND GAP:   5.3767 eV
 TTTTTTTTTTTTTTTTTTTTTTTTTTTTTT PDIG        TELAPSE       11.52 TCPU        9.27
 TTTTTTTTTTTTTTTTTTTTTTTTTTTTTT MOQGAD      TELAPSE       11.52 TCPU        9.27
 TTTTTTTTTTTTTTTTTTTTTTTTTTTTTT SHELLXN     TELAPSE       13.61 TCPU       11.34
 TTTTTTTTTTTTTTTTTTTTTTTTTTTTTT MONMO3      TELAPSE       13.61 TCPU       11.34
 NUMERICALLY INTEGRATED DENSITY     14.0000420155
 TTTTTTTTTTTTTTTTTTTTTTTTTTTTTT NUMDFT      TELAPSE       13.77 TCPU       11.50
 CYC   2 ETOT(AU) -9.030742885744E+01 DETOT -1.77E-02 tst  1.44E-02 PX  1.24E-01
 TTTTTTTTTTTTTTTTTTTTTTTTTTTTTT DIIS        TELAPSE       13.77 TCPU       11.50
 DIIS TEST: 0.51842E+00 AT SCF   CYCLE   2 - DIIS ACTIVE - HISTORY:     2 CYCLES
 TTTTTTTTTTTTTTTTTTTTTTTTTTTTTT FDIK        TELAPSE       13.88 TCPU       11.58
 INSULATING STATE
 TOP OF VALENCE BANDS -    BAND      7; K    1; EIG -2.7529041E-01 AU
 BOTTOM OF VIRTUAL BANDS - BAND      8; K    1; EIG  4.9694223E-04 AU
 DIRECT ENERGY BAND GAP:   7.5046 eV
 TTTTTTTTTTTTTTTTTTTTTTTTTTTTTT PDIG        TELAPSE       13.89 TCPU       11.58
 TTTTTTTTTTTTTTTTTTTTTTTTTTTTTT MOQGAD      TELAPSE       13.89 TCPU       11.58
 TTTTTTTTTTTTTTTTTTTTTTTTTTTTTT SHELLXN     TELAPSE       15.98 TCPU       13.66
 TTTTTTTTTTTTTTTTTTTTTTTTTTTTTT MONMO3      TELAPSE       15.98 TCPU       13.66
 NUMERICALLY INTEGRATED DENSITY     14.0000547410
 TTTTTTTTTTTTTTTTTTTTTTTTTTTTTT NUMDFT      TELAPSE       16.13 TCPU       13.82
 CYC   3 ETOT(AU) -9.036080585247E+01 DETOT -5.34E-02 tst  2.48E-03 PX  5.43E-02
 TTTTTTTTTTTTTTTTTTTTTTTTTTTTTT DIIS        TELAPSE       16.14 TCPU       13.82
 DIIS TEST: 0.26856E-02 AT SCF   CYCLE   3 - DIIS ACTIVE - HISTORY:     3 CYCLES
 TTTTTTTTTTTTTTTTTTTTTTTTTTTTTT FDIK        TELAPSE       16.14 TCPU       13.82
 INSULATING STATE
 TOP OF VALENCE BANDS -    BAND      7; K    1; EIG -2.8291159E-01 AU
 BOTTOM OF VIRTUAL BANDS - BAND      8; K    1; EIG -7.9263939E-04 AU
 DIRECT ENERGY BAND GAP:   7.6769 eV
 TTTTTTTTTTTTTTTTTTTTTTTTTTTTTT PDIG        TELAPSE       16.15 TCPU       13.83
 TTTTTTTTTTTTTTTTTTTTTTTTTTTTTT MOQGAD      TELAPSE       16.15 TCPU       13.83
 TTTTTTTTTTTTTTTTTTTTTTTTTTTTTT SHELLXN     TELAPSE       18.23 TCPU       15.91
 TTTTTTTTTTTTTTTTTTTTTTTTTTTTTT MONMO3      TELAPSE       18.24 TCPU       15.91
 NUMERICALLY INTEGRATED DENSITY     14.0000555714
 TTTTTTTTTTTTTTTTTTTTTTTTTTTTTT NUMDFT      TELAPSE       18.39 TCPU       16.06
 CYC   4 ETOT(AU) -9.036109058597E+01 DETOT -2.85E-04 tst  2.13E-05 PX  4.47E-03
 TTTTTTTTTTTTTTTTTTTTTTTTTTTTTT DIIS        TELAPSE       18.39 TCPU       16.07
 DIIS TEST: 0.43326E-05 AT SCF   CYCLE   4 - DIIS ACTIVE - HISTORY:     4 CYCLES
 TTTTTTTTTTTTTTTTTTTTTTTTTTTTTT FDIK        TELAPSE       18.40 TCPU       16.07
 INSULATING STATE
 TOP OF VALENCE BANDS -    BAND      7; K    1; EIG -2.8330025E-01 AU
 BOTTOM OF VIRTUAL BANDS - BAND      8; K    1; EIG -8.3228831E-04 AU
 DIRECT ENERGY BAND GAP:   7.6863 eV
 TTTTTTTTTTTTTTTTTTTTTTTTTTTTTT PDIG        TELAPSE       18.40 TCPU       16.07
 TTTTTTTTTTTTTTTTTTTTTTTTTTTTTT MOQGAD      TELAPSE       18.41 TCPU       16.07
 TTTTTTTTTTTTTTTTTTTTTTTTTTTTTT SHELLXN     TELAPSE       20.49 TCPU       18.15
 TTTTTTTTTTTTTTTTTTTTTTTTTTTTTT MONMO3      TELAPSE       20.49 TCPU       18.15
 NUMERICALLY INTEGRATED DENSITY     14.0000556134
 TTTTTTTTTTTTTTTTTTTTTTTTTTTTTT NUMDFT      TELAPSE       20.65 TCPU       18.30
 CYC   5 ETOT(AU) -9.036109119667E+01 DETOT -6.11E-07 tst  9.65E-08 PX  1.89E-04
 TTTTTTTTTTTTTTTTTTTTTTTTTTTTTT DIIS        TELAPSE       20.65 TCPU       18.31
 DIIS TEST: 0.68619E-07 AT SCF   CYCLE   5 - DIIS ACTIVE - HISTORY:     5 CYCLES
 TTTTTTTTTTTTTTTTTTTTTTTTTTTTTT FDIK        TELAPSE       20.66 TCPU       18.31
 INSULATING STATE
 TOP OF VALENCE BANDS -    BAND      7; K    1; EIG -2.8324360E-01 AU
 BOTTOM OF VIRTUAL BANDS - BAND      8; K    1; EIG -7.6558448E-04 AU
 DIRECT ENERGY BAND GAP:   7.6866 eV
 TTTTTTTTTTTTTTTTTTTTTTTTTTTTTT PDIG        TELAPSE       20.66 TCPU       18.31
 TTTTTTTTTTTTTTTTTTTTTTTTTTTTTT MOQGAD      TELAPSE       20.66 TCPU       18.31
 TTTTTTTTTTTTTTTTTTTTTTTTTTTTTT SHELLXN     TELAPSE       22.75 TCPU       20.39
 TTTTTTTTTTTTTTTTTTTTTTTTTTTTTT MONMO3      TELAPSE       22.75 TCPU       20.39
 NUMERICALLY INTEGRATED DENSITY     14.0000556085
 TTTTTTTTTTTTTTTTTTTTTTTTTTTTTT NUMDFT      TELAPSE       22.91 TCPU       20.54
 CYC   6 ETOT(AU) -9.036109120099E+01 DETOT -4.32E-09 tst  5.80E-10 PX  6.07E-05
 TTTTTTTTTTTTTTTTTTTTTTTTTTTTTT DIIS        TELAPSE       22.91 TCPU       20.55
 DIIS TEST: 0.45911E-08 AT SCF   CYCLE   6 - DIIS ACTIVE - HISTORY:     6 CYCLES
 TTTTTTTTTTTTTTTTTTTTTTTTTTTTTT FDIK        TELAPSE       22.91 TCPU       20.55
 INSULATING STATE
 TOP OF VALENCE BANDS -    BAND      7; K    1; EIG -2.8322782E-01 AU
 BOTTOM OF VIRTUAL BANDS - BAND      8; K    1; EIG -7.5264216E-04 AU
 DIRECT ENERGY BAND GAP:   7.6865 eV
 TTTTTTTTTTTTTTTTTTTTTTTTTTTTTT PDIG        TELAPSE       22.92 TCPU       20.55
 TTTTTTTTTTTTTTTTTTTTTTTTTTTTTT MOQGAD      TELAPSE       22.92 TCPU       20.55
 TTTTTTTTTTTTTTTTTTTTTTTTTTTTTT SHELLXN     TELAPSE       25.01 TCPU       22.63
 TTTTTTTTTTTTTTTTTTTTTTTTTTTTTT MONMO3      TELAPSE       25.01 TCPU       22.63
 NUMERICALLY INTEGRATED DENSITY     14.0000556069
 TTTTTTTTTTTTTTTTTTTTTTTTTTTTTT NUMDFT      TELAPSE       25.17 TCPU       22.79
 CYC   7 ETOT(AU) -9.036109120093E+01 DETOT  5.76E-11 tst  2.28E-11 PX  1.07E-05
 TTTTTTTTTTTTTTTTTTTTTTTTTTTTTT DIIS        TELAPSE       25.17 TCPU       22.79
 DIIS TEST: 0.19780E-10 AT SCF   CYCLE   7 - DIIS ACTIVE - HISTORY:     7 CYCLES
 TTTTTTTTTTTTTTTTTTTTTTTTTTTTTT FDIK        TELAPSE       25.17 TCPU       22.79
 INSULATING STATE
 TOP OF VALENCE BANDS -    BAND      7; K    1; EIG -2.8322661E-01 AU
 BOTTOM OF VIRTUAL BANDS - BAND      8; K    1; EIG -7.5108649E-04 AU
 DIRECT ENERGY BAND GAP:   7.6866 eV
 TTTTTTTTTTTTTTTTTTTTTTTTTTTTTT PDIG        TELAPSE       25.17 TCPU       22.80
 TTTTTTTTTTTTTTTTTTTTTTTTTTTTTT MOQGAD      TELAPSE       25.18 TCPU       22.80
 TTTTTTTTTTTTTTTTTTTTTTTTTTTTTT SHELLXN     TELAPSE       27.26 TCPU       24.87
 TTTTTTTTTTTTTTTTTTTTTTTTTTTTTT MONMO3      TELAPSE       27.26 TCPU       24.87
 NUMERICALLY INTEGRATED DENSITY     14.0000556068
 TTTTTTTTTTTTTTTTTTTTTTTTTTTTTT NUMDFT      TELAPSE       27.42 TCPU       25.03
 CYC   8 ETOT(AU) -9.036109120089E+01 DETOT  4.02E-11 tst  2.57E-13 PX  1.58E-06
 TTTTTTTTTTTTTTTTTTTTTTTTTTTTTT DIIS        TELAPSE       27.43 TCPU       25.03
 DIIS TEST: 0.26095E-12 AT SCF   CYCLE   8 - DIIS ACTIVE - HISTORY:     8 CYCLES
 TTTTTTTTTTTTTTTTTTTTTTTTTTTTTT FDIK        TELAPSE       27.43 TCPU       25.04
 INSULATING STATE
 TOP OF VALENCE BANDS -    BAND      7; K    1; EIG -2.8322648E-01 AU
 BOTTOM OF VIRTUAL BANDS - BAND      8; K    1; EIG -7.5095778E-04 AU
 DIRECT ENERGY BAND GAP:   7.6866 eV
 TTTTTTTTTTTTTTTTTTTTTTTTTTTTTT PDIG        TELAPSE       27.43 TCPU       25.04
 TTTTTTTTTTTTTTTTTTTTTTTTTTTTTT MOQGAD      TELAPSE       27.44 TCPU       25.04
 TTTTTTTTTTTTTTTTTTTTTTTTTTTTTT SHELLXN     TELAPSE       29.52 TCPU       27.12
 TTTTTTTTTTTTTTTTTTTTTTTTTTTTTT MONMO3      TELAPSE       29.52 TCPU       27.12
 NUMERICALLY INTEGRATED DENSITY     14.0000556067
 TTTTTTTTTTTTTTTTTTTTTTTTTTTTTT NUMDFT      TELAPSE       29.68 TCPU       27.28
 CYC   9 ETOT(AU) -9.036109120089E+01 DETOT  5.98E-12 tst  1.94E-15 PX  1.25E-07
 TTTTTTTTTTTTTTTTTTTTTTTTTTTTTT DIIS        TELAPSE       29.68 TCPU       27.28
 DIIS TEST: 0.35399E-16 AT SCF   CYCLE   9 - DIIS ACTIVE - HISTORY:     9 CYCLES
 TTTTTTTTTTTTTTTTTTTTTTTTTTTTTT FDIK        TELAPSE       29.69 TCPU       27.28
 INSULATING STATE
 TOP OF VALENCE BANDS -    BAND      7; K    1; EIG -2.8322648E-01 AU
 BOTTOM OF VIRTUAL BANDS - BAND      8; K    1; EIG -7.5095869E-04 AU
 DIRECT ENERGY BAND GAP:   7.6866 eV
 TTTTTTTTTTTTTTTTTTTTTTTTTTTTTT PDIG        TELAPSE       29.69 TCPU       27.28
 TTTTTTTTTTTTTTTTTTTTTTTTTTTTTT MOQGAD      TELAPSE       29.69 TCPU       27.28
 TTTTTTTTTTTTTTTTTTTTTTTTTTTTTT SHELLXN     TELAPSE       31.78 TCPU       29.36
 ::: PSEUDO TOTAL   ENERGY                        -8.0924752720158E+01
 ::: VIRIAL COEFFICIENT                            1.0529362140262E+00
 TTTTTTTTTTTTTTTTTTTTTTTTTTTTTT MONMO3      TELAPSE       31.78 TCPU       29.37
 NUMERICALLY INTEGRATED DENSITY     14.0000556067
 EXCHANGE ENERGY: -0.900314145899E+01  CORRELATION ENERGY: -0.433197021742E+00
 TTTTTTTTTTTTTTTTTTTTTTTTTTTTTT NUMDFT      TELAPSE       31.94 TCPU       29.52
 CYC  10 ETOT(AU) -9.036109120089E+01 DETOT  9.81E-13 tst  3.06E-19 PX  1.25E-07

 == SCF ENDED - CONVERGENCE ON ENERGY      E(AU) -9.0361091200885E+01 CYCLES  10


 ENERGY EXPRESSION=HARTREE+FOCK EXCH*0.25000+(PBE        EXCH)*0.75000+PBE        CORR


 TOTAL ENERGY(DFT)(AU)( 10) -9.0361091200885E+01 DE 9.8E-13 tester 3.1E-19
 TTTTTTTTTTTTTTTTTTTTTTTTTTTTTT EDFT        TELAPSE       31.95 TCPU       29.52

 *******************************************************************************
 *                             FORCE CALCULATION                               *
 *******************************************************************************

 TTTTTTTTTTTTTTTTTTTTTTTTTTTTTT NUMDFG      TELAPSE       32.97 TCPU       30.54
 INFORMATION **** EXCPOG **** EXCH. BIPO BUFFER LENGTH (WORDS) =     1517616
 INFORMATION **** GENPOG **** BIPO BUFFER LENGTH (WORDS) =      415600
 TTTTTTTTTTTTTTTTTTTTTTTTTTTTTT SHELXG      TELAPSE       45.53 TCPU       43.05

 CARTESIAN FORCES IN HARTREE/BOHR (ANALYTICAL)
   ATOM                     X                   Y                   Z
   1   3            -2.502198186247E-16 -1.262883914038E-17 -9.051889325286E-18
   2   3             9.517366777963E-16  3.472824520602E-17  3.896782998247E-17
   3   8            -7.030252208810E-16 -2.640036129537E-17 -1.835495814924E-17

 RESULTANT FORCE    -1.508361709312E-18 -4.300955229733E-18  1.156098250795E-17

 ATOMIC PART

 THERE ARE NO SYMMETRY ALLOWED DIRECTIONS

 CELL PART

 GRADIENT WITH RESPECT TO THE CELL PARAMETER IN HARTREE/BOHR
ORDER: -D/DA1X, -D/DA1Y, -D/DA1Z
       -D/DA2X, -D/DA2Y, -D/DA2Z
       -D/DA3X, -D/DA3Y, -D/DA3Z
  0.242859265302E-03 -0.242859265301E-03 -0.242859265301E-03
 -0.242859265302E-03  0.242859265302E-03 -0.242859265303E-03
 -0.242859265302E-03 -0.242859265302E-03  0.242859265302E-03

STRESS TENSOR, IN HARTREE/BOHR^3:
ORDER: 11 12 13
       21 22 23
       31 32 33
  0.127697178381E-04 -0.389190503029E-17 -0.389122097059E-17
 -0.389147388385E-17  0.127697178380E-04 -0.252966065265E-16
  0.194562605866E-17 -0.252956272262E-16  0.127697178381E-04

PRESSURE FROM THE STRESS TENSOR,
IN HARTREE/BOHR^3: -0.12770E-04
PRESSURE IN GIGAPASCAL: -0.3757E+00
CONVERSION FACTOR: 1 HARTREE/BOHR^3= 29421 GIGAPASCAL
WHEN USING VALUES FOR BOHR RADIUS AND HARTREE
FROM IUPAC WEBSITE, APRIL 2009
ENTHALPY: -9.0363209422330E+01

 SYMMETRY ALLOWED FORCES (ANALYTICAL) (DIRECTION, FORCE)

    1 -3.6688672E-03
 TTTTTTTTTTTTTTTTTTTTTTTTTTTTTT TOTGRA      TELAPSE       45.55 TCPU       43.07
 INFORMATION **** optc001 **** GEOMETRY OUTPUT FILE
 CLASSICAL MODEL (SCHLEGEL) USED AS INITIAL HESSIAN MATRIX
 REFERENCE GEOMETRY DEFINED

 MAX GRADIENT      0.003669  THRESHOLD              0.000045 CONVERGED NO
 RMS GRADIENT      0.003669  THRESHOLD              0.000030 CONVERGED NO

 GRADIENT NORM     0.003669  GRADIENT THRESHOLD     0.500000

 EIGENVALUES OF THE ESTIMATED HESSIAN
   2.968    

 INITIAL TRUST RADIUS    0.5000000000E+00

 PREDICTED ENERGY CHANGE    -0.227E-05

 INITIAL DISPLACEMENTS
 -0.001236
 TTTTTTTTTTTTTTTTTTTTTTTTTTTTTT OPTI        TELAPSE       45.71 TCPU       43.22

 OPTOPTOPTOPTOPTOPTOPTOPTOPTOPTOPTOPTOPTOPTOPTOPTOPTOPTOPTOPTOPTOPTOPTOPTOPTOPT

 - INFORMATION ON SCF MOVED TO SCFOUT.LOG
 GEOMETRY OPTIMIZATION INFORMATION STORED IN OPTINFO.DAT

 OPTOPTOPTOPTOPTOPTOPTOPTOPTOPTOPTOPTOPTOPTOPTOPTOPTOPTOPTOPTOPTOPTOPTOPTOPTOPT
 *******************************************************************************
 CELL OPTIMIZATION - POINT    2
 *******************************************************************************
 LATTICE PARAMETERS (ANGSTROMS AND DEGREES) - BOHR = 0.5291772083 ANGSTROM
 PRIMITIVE CELL - CENTRING CODE 5/0 VOLUME=    24.528058 - DENSITY  2.033 g/cm^3
         A              B              C           ALPHA      BETA       GAMMA 
     3.26131482     3.26131482     3.26131482    60.000000  60.000000  60.000000
 *******************************************************************************
 ATOMS IN THE ASYMMETRIC UNIT    2 - ATOMS IN THE UNIT CELL:    3
     ATOM                 X/A                 Y/B                 Z/C    
 *******************************************************************************
      1 T   3 LI   -2.500000000000E-01 -2.500000000000E-01 -2.500000000000E-01
      2 F   3 LI    2.500000000000E-01  2.500000000000E-01  2.500000000000E-01
      3 T   8 O     0.000000000000E+00  0.000000000000E+00  0.000000000000E+00

 TRANSFORMATION MATRIX PRIMITIVE-CRYSTALLOGRAPHIC CELL
 -1.0000  1.0000  1.0000  1.0000 -1.0000  1.0000  1.0000  1.0000 -1.0000

 *******************************************************************************
 CRYSTALLOGRAPHIC CELL (VOLUME=         98.11223386)
         A              B              C           ALPHA      BETA       GAMMA 
     4.61219564     4.61219564     4.61219564    90.000000  90.000000  90.000000

 COORDINATES IN THE CRYSTALLOGRAPHIC CELL
     ATOM                 X/A                 Y/B                 Z/C    
 *******************************************************************************
      1 T   3 LI   -2.500000000000E-01 -2.500000000000E-01 -2.500000000000E-01
      2 F   3 LI    2.500000000000E-01 -2.500000000000E-01 -2.500000000000E-01
      3 T   8 O     0.000000000000E+00  0.000000000000E+00  0.000000000000E+00

 T = ATOM BELONGING TO THE ASYMMETRIC UNIT

 TOTAL ENERGY(DFT)(AU)(  8) -9.0361093814397E+01     DE (AU)   -2.614E-06

 UPDATED TRUST RADIUS     0.500E+00

 SYMMETRY ALLOWED FORCES  (COORDINATE, FORCE)

    1 -1.9075161E-03

 GRADIENT NORM     0.001908  GRADIENT THRESHOLD     0.500000

 EIGENVALUES OF THE ESTIMATED HESSIAN
   1.425    

 PREDICTED ENERGY CHANGE    -0.128E-05

 MAX GRADIENT      0.001908  THRESHOLD              0.000045 CONVERGED NO
 RMS GRADIENT      0.001908  THRESHOLD              0.000030 CONVERGED NO
 MAX DISPLAC.      0.001339  THRESHOLD              0.000180 CONVERGED NO
 RMS DISPLAC.      0.001339  THRESHOLD              0.000120 CONVERGED NO
 TTTTTTTTTTTTTTTTTTTTTTTTTTTTTT OPTI        TELAPSE       80.68 TCPU       77.98
 *******************************************************************************
 CELL OPTIMIZATION - POINT    3
 *******************************************************************************
 LATTICE PARAMETERS (ANGSTROMS AND DEGREES) - BOHR = 0.5291772083 ANGSTROM
 PRIMITIVE CELL - CENTRING CODE 5/0 VOLUME=    24.471222 - DENSITY  2.038 g/cm^3
         A              B              C           ALPHA      BETA       GAMMA 
     3.25879385     3.25879385     3.25879385    60.000000  60.000000  60.000000
 *******************************************************************************
 ATOMS IN THE ASYMMETRIC UNIT    2 - ATOMS IN THE UNIT CELL:    3
     ATOM                 X/A                 Y/B                 Z/C    
 *******************************************************************************
      1 T   3 LI   -2.500000000000E-01 -2.500000000000E-01 -2.500000000000E-01
      2 F   3 LI    2.500000000000E-01  2.500000000000E-01  2.500000000000E-01
      3 T   8 O     0.000000000000E+00  0.000000000000E+00  0.000000000000E+00

 TRANSFORMATION MATRIX PRIMITIVE-CRYSTALLOGRAPHIC CELL
 -1.0000  1.0000  1.0000  1.0000 -1.0000  1.0000  1.0000  1.0000 -1.0000

 *******************************************************************************
 CRYSTALLOGRAPHIC CELL (VOLUME=         97.88488982)
         A              B              C           ALPHA      BETA       GAMMA 
     4.60863046     4.60863046     4.60863046    90.000000  90.000000  90.000000

 COORDINATES IN THE CRYSTALLOGRAPHIC CELL
     ATOM                 X/A                 Y/B                 Z/C    
 *******************************************************************************
      1 T   3 LI   -2.500000000000E-01 -2.500000000000E-01 -2.500000000000E-01
      2 F   3 LI    2.500000000000E-01 -2.500000000000E-01 -2.500000000000E-01
      3 T   8 O     0.000000000000E+00  0.000000000000E+00  0.000000000000E+00

 T = ATOM BELONGING TO THE ASYMMETRIC UNIT

 TOTAL ENERGY(DFT)(AU)(  8) -9.0361094174281E+01     DE (AU)   -3.599E-07

 UPDATED TRUST RADIUS     0.500E+00

 SYMMETRY ALLOWED FORCES  (COORDINATE, FORCE)

    1  8.4766571E-06

 GRADIENT NORM     0.000008  GRADIENT THRESHOLD     0.500000

 EIGENVALUES OF THE ESTIMATED HESSIAN
   1.431    

 PREDICTED ENERGY CHANGE    -0.251E-10

 MAX GRADIENT      0.000008  THRESHOLD              0.000045 CONVERGED YES
 RMS GRADIENT      0.000008  THRESHOLD              0.000030 CONVERGED YES
 MAX DISPLAC.      0.000006  THRESHOLD              0.000180 CONVERGED YES
 RMS DISPLAC.      0.000006  THRESHOLD              0.000120 CONVERGED YES

 CONVERGENCE TESTS SATISFIED AFTER   3 ENERGY AND GRADIENT CALCULATIONS
 +++++++++++++++++++++++++++++++++++++++++++++++++++++++++++++++++++++++++++++++
 FINALRUN OPTION: RE-STARTING OPTIMIZATION
 +++++++++++++++++++++++++++++++++++++++++++++++++++++++++++++++++++++++++++++++
 TTTTTTTTTTTTTTTTTTTTTTTTTTTTTT OPTI        TELAPSE      115.65 TCPU      112.72
 *******************************************************************************
 CELL OPTIMIZATION - POINT    4
 *******************************************************************************
 LATTICE PARAMETERS (ANGSTROMS AND DEGREES) - BOHR = 0.5291772083 ANGSTROM
 PRIMITIVE CELL - CENTRING CODE 5/0 VOLUME=    24.471474 - DENSITY  2.038 g/cm^3
         A              B              C           ALPHA      BETA       GAMMA 
     3.25880499     3.25880499     3.25880499    60.000000  60.000000  60.000000
 *******************************************************************************
 ATOMS IN THE ASYMMETRIC UNIT    2 - ATOMS IN THE UNIT CELL:    3
     ATOM                 X/A                 Y/B                 Z/C    
 *******************************************************************************
      1 T   3 LI   -2.500000000000E-01 -2.500000000000E-01 -2.500000000000E-01
      2 F   3 LI    2.500000000000E-01  2.500000000000E-01  2.500000000000E-01
      3 T   8 O     0.000000000000E+00  0.000000000000E+00  0.000000000000E+00

 TRANSFORMATION MATRIX PRIMITIVE-CRYSTALLOGRAPHIC CELL
 -1.0000  1.0000  1.0000  1.0000 -1.0000  1.0000  1.0000  1.0000 -1.0000

 *******************************************************************************
 CRYSTALLOGRAPHIC CELL (VOLUME=         97.88589408)
         A              B              C           ALPHA      BETA       GAMMA 
     4.60864622     4.60864622     4.60864622    90.000000  90.000000  90.000000

 COORDINATES IN THE CRYSTALLOGRAPHIC CELL
     ATOM                 X/A                 Y/B                 Z/C    
 *******************************************************************************
      1 T   3 LI   -2.500000000000E-01 -2.500000000000E-01 -2.500000000000E-01
      2 F   3 LI    2.500000000000E-01 -2.500000000000E-01 -2.500000000000E-01
      3 T   8 O     0.000000000000E+00  0.000000000000E+00  0.000000000000E+00

 T = ATOM BELONGING TO THE ASYMMETRIC UNIT

 REFERENCE GEOMETRY WILL BE CHANGED

 TOTAL ENERGY(DFT)(AU)(  6) -9.0361094817562E+01     DE (AU)   -6.433E-07

 SYMMETRY ALLOWED FORCES  (COORDINATE, FORCE)

    1  1.7572958E-05

 GRADIENT NORM     0.000018  GRADIENT THRESHOLD     0.500000

 HESSIAN UPDATE SKIPPED

 EIGENVALUES OF THE ESTIMATED HESSIAN
   1.431    

 PREDICTED ENERGY CHANGE    -0.108E-09

 MAX GRADIENT      0.000018  THRESHOLD              0.000045 CONVERGED YES
 RMS GRADIENT      0.000018  THRESHOLD              0.000030 CONVERGED YES
 MAX DISPLAC.      0.000012  THRESHOLD              0.000180 CONVERGED YES
 RMS DISPLAC.      0.000012  THRESHOLD              0.000120 CONVERGED YES

 CONVERGENCE TESTS SATISFIED AFTER   4 ENERGY AND GRADIENT CALCULATIONS

 ******************************************************************
 * OPT END - CONVERGED * E(AU):  -9.036109481756E+01  POINTS    4 *
 ******************************************************************

   BAND GAP:                      7.7219  eV 

 EIGENVECTORS IN FORTRAN UNIT  8

 NEIGHBORS OF THE NON-EQUIVALENT ATOMS

 N = NUMBER OF NEIGHBORS AT DISTANCE R
    ATOM  N     R/ANG      R/AU   NEIGHBORS (ATOM LABELS AND CELL INDICES)
   1 LI   4     1.9956     3.7711    3 O    0 0 0    3 O   -1 0 0    3 O    0-1 0
                                     3 O    0 0-1
   1 LI   6     2.3043     4.3545    2 LI   0 0 0    2 LI   1 0-1    2 LI   1-1 0
                                     2 LI   0-1 0    2 LI   0 0-1    2 LI   1-1-1
   1 LI  12     3.2588     6.1582    1 LI  -1 0 0    1 LI   1 0 0    1 LI  -1 0 1
                                     1 LI   1 0-1    1 LI  -1 1 0    1 LI   1-1 0
                                     1 LI   0-1 0    1 LI   0 1 0    1 LI   0-1 1
                                     1 LI   0 1-1    1 LI   0 0-1    1 LI   0 0 1
   1 LI  12     3.8213     7.2212    3 O    1 0-1    3 O   -1 0 1    3 O    1-1 0
                                     3 O   -1 1 0    3 O    0 1-1    3 O    0-1 1
                                     3 O   -1-1 1    3 O   -1 1-1    3 O    1-1-1
                                     3 O   -1-1 0    3 O   -1 0-1    3 O    0-1-1
   1 LI   8     3.9912     7.5423    2 LI   1 0 0    2 LI  -1 0 0    2 LI   0 1-1
                                     2 LI   0-1 1    2 LI   2-1-1    2 LI   1 0-2
                                     2 LI   1-2 0    2 LI   0-1-1
   1 LI   6     4.6086     8.7091    1 LI  -1-1 1    1 LI   1 1-1    1 LI  -1 1-1
                                     1 LI   1-1 1    1 LI  -1 1 1    1 LI   1-1-1

   3 O    8     1.9956     3.7711    1 LI   0 0 0    1 LI   1 0 0    1 LI   0 1 0
                                     1 LI   0 0 1    2 LI   1 0 0    2 LI   1-1 0
                                     2 LI   0 0 0    2 LI   1 0-1
   3 O   12     3.2588     6.1582    3 O   -1 0 0    3 O    1 0 0    3 O   -1 0 1
                                     3 O    1 0-1    3 O   -1 1 0    3 O    1-1 0
                                     3 O    0-1 0    3 O    0 1 0    3 O    0-1 1
                                     3 O    0 1-1    3 O    0 0-1    3 O    0 0 1
   3 O   24     3.8213     7.2212    1 LI  -1 0 1    1 LI   1 0-1    1 LI  -1 1 0
                                     1 LI   1-1 0    1 LI   0-1 1    1 LI   0 1-1
                                     1 LI   1 1-1    1 LI   1-1 1    1 LI  -1 1 1
                                     1 LI   1 1 0    1 LI   1 0 1    1 LI   0 1 1
                                     2 LI   1 1-1    2 LI   1-1 1    2 LI   0 1 0
                                     2 LI   2-1 0    2 LI   2 0-1    2 LI   0 0 1
                                     2 LI   0-1 1    2 LI   2-1-1    2 LI   0 1-1
                                     2 LI   0-1 0    2 LI   1-1-1    2 LI   0 0-1
   3 O    6     4.6086     8.7091    3 O   -1-1 1    3 O    1 1-1    3 O   -1 1-1
                                     3 O    1-1 1    3 O   -1 1 1    3 O    1-1-1
   3 O   24     5.0222     9.4905    1 LI  -1 0 0    1 LI   0-1 0    1 LI   0 0-1
                                     1 LI   2 0-1    1 LI   2-1 0    1 LI  -1 0 2
                                     1 LI  -1 2 0    1 LI   0 2-1    1 LI   0-1 2
                                     1 LI   2 0 0    1 LI   0 2 0    1 LI   0 0 2
                                     2 LI   1 1 0    2 LI   2 0 0    2 LI   1 0 1
                                     2 LI   1-2 1    2 LI   2-2 0    2 LI   1 1-2
                                     2 LI  -1 1 0    2 LI  -1 0 1    2 LI   2 0-2
                                     2 LI   1-2 0    2 LI  -1 0 0    2 LI   1 0-2
   3 O   24     5.6444    10.6664    3 O   -2 0 1    3 O    2 0-1    3 O   -2 1 0
                                     3 O    2-1 0    3 O   -2 1 1    3 O    2-1-1
                                     3 O   -1-1 0    3 O    1 1 0    3 O   -1-1 2
                                     3 O    1 1-2    3 O   -1 0-1    3 O    1 0 1
                                     3 O   -1 0 2    3 O    1 0-2    3 O   -1 2-1
                                     3 O    1-2 1    3 O   -1 2 0    3 O    1-2 0
                                     3 O    0-2 1    3 O    0 2-1    3 O    0-1-1
                                     3 O    0 1 1    3 O    0-1 2    3 O    0 1-2


 FINAL OPTIMIZED GEOMETRY - DIMENSIONALITY OF THE SYSTEM      3
 (NON PERIODIC DIRECTION: LATTICE PARAMETER FORMALLY SET TO 500)
 *******************************************************************************
 LATTICE PARAMETERS (ANGSTROMS AND DEGREES) - BOHR = 0.5291772083 ANGSTROM
 PRIMITIVE CELL - CENTRING CODE 5/0 VOLUME=    24.471474 - DENSITY  2.038 g/cm^3
         A              B              C           ALPHA      BETA       GAMMA 
     3.25880499     3.25880499     3.25880499    60.000000  60.000000  60.000000
 *******************************************************************************
 ATOMS IN THE ASYMMETRIC UNIT    2 - ATOMS IN THE UNIT CELL:    3
     ATOM                 X/A                 Y/B                 Z/C    
 *******************************************************************************
      1 T   3 LI   -2.500000000000E-01 -2.500000000000E-01 -2.500000000000E-01
      2 F   3 LI    2.500000000000E-01  2.500000000000E-01  2.500000000000E-01
      3 T   8 O     0.000000000000E+00  0.000000000000E+00  0.000000000000E+00

 TRANSFORMATION MATRIX PRIMITIVE-CRYSTALLOGRAPHIC CELL
 -1.0000  1.0000  1.0000  1.0000 -1.0000  1.0000  1.0000  1.0000 -1.0000

 *******************************************************************************
 CRYSTALLOGRAPHIC CELL (VOLUME=         97.88589408)
         A              B              C           ALPHA      BETA       GAMMA 
     4.60864622     4.60864622     4.60864622    90.000000  90.000000  90.000000

 COORDINATES IN THE CRYSTALLOGRAPHIC CELL
     ATOM                 X/A                 Y/B                 Z/C    
 *******************************************************************************
      1 T   3 LI   -2.500000000000E-01 -2.500000000000E-01 -2.500000000000E-01
      2 F   3 LI    2.500000000000E-01 -2.500000000000E-01 -2.500000000000E-01
      3 T   8 O     0.000000000000E+00  0.000000000000E+00  0.000000000000E+00

 T = ATOM BELONGING TO THE ASYMMETRIC UNIT
 INFORMATION **** fort.34 **** GEOMETRY OUTPUT FILE

 DIRECT LATTICE VECTORS CARTESIAN COMPONENTS (ANGSTROM)
          X                    Y                    Z
   0.000000000000E+00   0.230432310793E+01   0.230432310793E+01
   0.230432310793E+01   0.000000000000E+00   0.230432310793E+01
   0.230432310793E+01   0.230432310793E+01   0.000000000000E+00


 CARTESIAN COORDINATES - PRIMITIVE CELL
 *******************************************************************************
 *      ATOM          X(ANGSTROM)         Y(ANGSTROM)         Z(ANGSTROM)
 *******************************************************************************
    1     3 LI   -1.152161553966E+00 -1.152161553966E+00 -1.152161553966E+00
    2     3 LI    1.152161553966E+00 -1.152161553966E+00 -1.152161553966E+00
    3     8 O     0.000000000000E+00  0.000000000000E+00  0.000000000000E+00

 DFT PARAMETERS

     ATOM       ELECTRONS   NET CHARGE   R(ANGSTROM)
   1   3  LI      3.0000      0.0000     1.57000000
   3   8  O       8.0000      0.0000     0.74000000

 SIZE OF GRID=       2949
 TTTTTTTTTTTTTTTTTTTTTTTTTTTTTT MAKE_GRID2  TELAPSE      150.50 TCPU      147.34
 BECKE WEIGHT FUNCTION
 RADSAFE =     2.00
 TOLERANCES - DENSITY:10**- 6; POTENTIAL:10**- 9; GRID WGT:10**-14

 RADIAL INTEGRATION  - INTERVALS (POINTS,UPPER LIMIT):            1( 99,  4.0*R)

 ANGULAR INTEGRATION - INTERVALS (ACCURACY LEVEL [N. POINTS] UPPER LIMIT):
  1(  6[ 146]   0.2)  2( 11[ 302]   0.5)  3( 14[ 590]   0.9)  4( 18[1454]   3.5)
  5( 14[ 590]9999.0)
 EEEEEEEEEE INT_CALC TERMINATION  DATE 25 07 2023 TIME 17:07:49.0

 *******************************************************************************
 ICSD_CollCode257372.cif                                                         
 CRYSTAL - SCF - TYPE OF CALCULATION :  RESTRICTED CLOSED SHELL
 *******************************************************************************

 CAPPA:IS1  8;IS2  8;IS3  8; K PTS MONK NET  29; SYMMOPS:K SPACE  48;G SPACE  48

 TTTTTTTTTTTTTTTTTTTTTTTTTTTTTT SDIK        TELAPSE      150.54 TCPU      147.37

 INFORMATION FROM INTEGRAL EVALUATION

 RESTART FROM A PREVIOUS DENSITY MATRIX - DEP ACTIVE
 NUMBER OF COUPLE SETS (NEW, OLD, FOUND):     104     104     104
 NUMBER OF IRREDUCIBLE G VECTORS        :    1608    1608    1608
 TTTTTTTTTTTTTTTTTTTTTTTTTTTTTT MOQGAD      TELAPSE      150.54 TCPU      147.38
 TTTTTTTTTTTTTTTTTTTTTTTTTTTTTT SHELLXN     TELAPSE      152.62 TCPU      149.44
 TTTTTTTTTTTTTTTTTTTTTTTTTTTTTT MONMO3      TELAPSE      152.62 TCPU      149.44
 NUMERICALLY INTEGRATED DENSITY     14.0000512345
 TTTTTTTTTTTTTTTTTTTTTTTTTTTTTT NUMDFT      TELAPSE      152.77 TCPU      149.59
 CYC   0 ETOT(AU) -9.036109481756E+01 DETOT -9.04E+01 tst  3.18E-19 PX  1.00E+00
 TTTTTTTTTTTTTTTTTTTTTTTTTTTTTT DIIS        TELAPSE      152.78 TCPU      149.60
 TTTTTTTTTTTTTTTTTTTTTTTTTTTTTT FDIK        TELAPSE      152.78 TCPU      149.60
 INSULATING STATE
 TOP OF VALENCE BANDS -    BAND      7; K    1; EIG -2.8343641E-01 AU
 BOTTOM OF VIRTUAL BANDS - BAND      8; K    1; EIG  3.3978240E-04 AU
 DIRECT ENERGY BAND GAP:   7.7219 eV
 TTTTTTTTTTTTTTTTTTTTTTTTTTTTTT PDIG        TELAPSE      152.79 TCPU      149.60
 TTTTTTTTTTTTTTTTTTTTTTTTTTTTTT MOQGAD      TELAPSE      152.79 TCPU      149.60
 TTTTTTTTTTTTTTTTTTTTTTTTTTTTTT SHELLXN     TELAPSE      154.86 TCPU      151.67
 TTTTTTTTTTTTTTTTTTTTTTTTTTTTTT MONMO3      TELAPSE      154.87 TCPU      151.67
 NUMERICALLY INTEGRATED DENSITY     14.0000512345
 TTTTTTTTTTTTTTTTTTTTTTTTTTTTTT NUMDFT      TELAPSE      155.02 TCPU      151.82
 CYC   1 ETOT(AU) -9.036109481756E+01 DETOT -1.42E-13 tst  0.00E+00 PX  4.28E-10
 TTTTTTTTTTTTTTTTTTTTTTTTTTTTTT DIIS        TELAPSE      155.02 TCPU      151.83
 DIIS TEST: 0.30163E-17 AT SCF   CYCLE   1 - MIX   30 %
 TTTTTTTTTTTTTTTTTTTTTTTTTTTTTT FDIK        TELAPSE      155.03 TCPU      151.83
 INSULATING STATE
 TOP OF VALENCE BANDS -    BAND      7; K    1; EIG -2.8343641E-01 AU
 BOTTOM OF VIRTUAL BANDS - BAND      8; K    1; EIG  3.3978256E-04 AU
 DIRECT ENERGY BAND GAP:   7.7219 eV
 TTTTTTTTTTTTTTTTTTTTTTTTTTTTTT PDIG        TELAPSE      155.03 TCPU      151.83
 TTTTTTTTTTTTTTTTTTTTTTTTTTTTTT MOQGAD      TELAPSE      155.03 TCPU      151.83
 TTTTTTTTTTTTTTTTTTTTTTTTTTTTTT SHELLXN     TELAPSE      157.11 TCPU      153.90
 ::: PSEUDO TOTAL   ENERGY                        -8.0923386666499E+01
 ::: VIRIAL COEFFICIENT                            1.0529785613906E+00
 TTTTTTTTTTTTTTTTTTTTTTTTTTTTTT MONMO3      TELAPSE      157.11 TCPU      153.90
 NUMERICALLY INTEGRATED DENSITY     14.0000512345
 EXCHANGE ENERGY: -0.900430227422E+01  CORRELATION ENERGY: -0.433405876840E+00
 TTTTTTTTTTTTTTTTTTTTTTTTTTTTTT NUMDFT      TELAPSE      157.27 TCPU      154.06
 CYC   2 ETOT(AU) -9.036109481756E+01 DETOT -5.12E-13 tst  6.80E-20 PX  4.28E-10

 == SCF ENDED - CONVERGENCE ON ENERGY      E(AU) -9.0361094817562E+01 CYCLES   2


 ENERGY EXPRESSION=HARTREE+FOCK EXCH*0.25000+(PBE        EXCH)*0.75000+PBE        CORR


 TOTAL ENERGY(DFT)(AU)(  2) -9.0361094817562E+01 DE-5.1E-13 tester 6.8E-20
 TTTTTTTTTTTTTTTTTTTTTTTTTTTTTT EDFT        TELAPSE      157.27 TCPU      154.06
 INSULATING STATE
 TOP OF VALENCE BANDS -    BAND      7; K    1; EIG -2.8343641E-01 AU
 BOTTOM OF VIRTUAL BANDS - BAND      8; K    1; EIG  3.3978233E-04 AU
 DIRECT ENERGY BAND GAP:   7.7219 eV
 EIGENVECTORS IN FORTRAN UNIT  8
 EEEEEEEEEE SCF TERMINATION  DATE 25 07 2023 TIME 17:07:55.8

     *********************************************************************
     * ***************************************************************** *
     * *        COUPLED-PERTURBED KOHN-SHAM CALCULATION (CPKS)         * *
     * *        REFERENCES TO BE QUOTED WHEN USING THIS MODULE:        * *
     * *        (1) M. Ferrero, M. Rerat, R. Orlando, R.Dovesi,        * *
     * *            J. Comput. Chem. 29 (2008), 1450;                  * *
     * *            J. Chem. Phys. 128 (2008), 014110.                 * *
     * *        (2) M. Ferrero, M. Rerat, B. Kirtman, R. Dovesi,       * *
     * *            J. Chem. Phys. 129 (2008), 244110.                 * *
     * ***************************************************************** *
     *********************************************************************

 INFORMATION **** CP_DRIVER **** CONVERGENCE ON ALPHA: 10**          -3
 INFORMATION **** CP_DRIVER **** MAX NUMBER OF CPHF/CPKS CYCLES         200
 INFORMATION **** CP_DRIVER **** CPHF/CPKS DAMPING PERCENTAGE:          60
 STATIC FIELD (OR H*NU < 1E-15 HA)

 *******************************************************************************

 ELECTRIC FIELD APPLIED ALONG CARTESIAN DIRECTION X

 *******************************************************************************
 THE NUMBER OF SYMMETRY OPERATORS HAS BEEN REDUCED FROM 48 TO  1

 NEW GRID IN RECIPROCAL SPACE
 *******************************************************************************
 POINTS IN THE IBZ                 260 SHRINKING FACTORS               8  8  8
 *******************************************************************************
 *** K POINTS COORDINATES (OBLIQUE COORDINATES IN UNITS OF SHRINK FAC. )
   1-R(  0  0  0)   2-C(  1  0  0)   3-C(  0  1  0)   4-C(  7  7  7)
   5-C(  0  0  1)   6-C(  2  0  0)   7-C(  0  2  0)   8-C(  6  6  6)
   9-C(  0  0  2)  10-C(  3  0  0)  11-C(  0  3  0)  12-C(  5  5  5)
  13-C(  0  0  3)  14-R(  4  0  0)  15-R(  0  4  0)  16-R(  4  4  4)
  17-R(  0  0  4)  18-C(  1  1  0)  19-C(  0  1  1)  20-C(  1  0  1)
  21-C(  2  1  0)  22-C(  1  2  0)  23-C(  6  6  7)  24-C(  7  7  1)
  25-C(  0  2  1)  26-C(  1  0  2)  27-C(  1  7  7)  28-C(  2  0  1)
  29-C(  0  1  2)  30-C(  6  7  6)  31-C(  7  6  6)  32-C(  7  1  7)
  33-C(  3  1  0)  34-C(  1  3  0)  35-C(  5  5  6)  36-C(  7  7  2)
  37-C(  0  3  1)  38-C(  1  0  3)  39-C(  2  7  7)  40-C(  3  0  1)
  41-C(  0  1  3)  42-C(  5  6  5)  43-C(  6  5  5)  44-C(  7  2  7)
  45-C(  4  1  0)  46-C(  1  4  0)  47-C(  4  4  5)  48-C(  7  7  3)
  49-C(  0  4  1)  50-C(  1  0  4)  51-C(  3  7  7)  52-C(  4  0  1)
  53-C(  0  1  4)  54-C(  4  5  4)  55-C(  5  4  4)  56-C(  7  3  7)
  57-C(  5  1  0)  58-C(  1  5  0)  59-C(  3  3  4)  60-C(  7  7  4)
  61-C(  0  5  1)  62-C(  1  0  5)  63-C(  4  7  7)  64-C(  5  0  1)
  65-C(  0  1  5)  66-C(  3  4  3)  67-C(  4  3  3)  68-C(  7  4  7)
  69-C(  6  1  0)  70-C(  1  6  0)  71-C(  2  2  3)  72-C(  7  7  5)
  73-C(  0  6  1)  74-C(  1  0  6)  75-C(  5  7  7)  76-C(  6  0  1)
  77-C(  0  1  6)  78-C(  2  3  2)  79-C(  3  2  2)  80-C(  7  5  7)
  81-C(  7  1  0)  82-C(  1  1  2)  83-C(  0  7  1)  84-C(  1  0  7)
  85-C(  6  7  7)  86-C(  1  2  1)  87-C(  2  2  0)  88-C(  0  2  2)
  89-C(  2  0  2)  90-C(  3  2  0)  91-C(  2  3  0)  92-C(  5  5  7)
  93-C(  6  6  1)  94-C(  0  3  2)  95-C(  2  0  3)  96-C(  1  6  6)
  97-C(  3  0  2)  98-C(  0  2  3)  99-C(  5  7  5) 100-C(  7  5  5)
 101-C(  6  1  6) 102-C(  4  2  0) 103-C(  2  4  0) 104-C(  4  4  6)
 105-C(  6  6  2) 106-C(  0  4  2) 107-C(  2  0  4) 108-C(  2  6  6)
 109-C(  4  0  2) 110-C(  0  2  4) 111-C(  4  6  4) 112-C(  6  4  4)
 113-C(  6  2  6) 114-C(  5  2  0) 115-C(  2  5  0) 116-C(  3  3  5)
 117-C(  6  6  3) 118-C(  0  5  2) 119-C(  2  0  5) 120-C(  3  6  6)
 121-C(  5  0  2) 122-C(  0  2  5) 123-C(  3  5  3) 124-C(  5  3  3)
 125-C(  6  3  6) 126-C(  6  2  0) 127-C(  2  2  4) 128-C(  0  6  2)
 129-C(  2  0  6) 130-C(  4  6  6) 131-C(  2  4  2) 132-C(  3  3  0)
 133-C(  0  3  3) 134-C(  3  0  3) 135-C(  4  3  0) 136-C(  3  4  0)
 137-C(  4  4  7) 138-C(  5  5  1) 139-C(  0  4  3) 140-C(  3  0  4)
 141-C(  1  5  5) 142-C(  4  0  3) 143-C(  0  3  4) 144-C(  4  7  4)
 145-C(  7  4  4) 146-C(  5  1  5) 147-C(  5  3  0) 148-C(  3  3  6)
 149-C(  0  5  3) 150-C(  3  0  5) 151-C(  2  5  5) 152-C(  3  6  3)
 153-R(  4  4  0) 154-R(  0  4  4) 155-R(  4  0  4) 156-C(  3  2  1)
 157-C(  1  2  7) 158-C(  1  3  2) 159-C(  2  1  3) 160-C(  1  7  6)
 161-C(  2  7  1) 162-C(  6  5  7) 163-C(  6  7  1) 164-C(  5  7  6)
 165-C(  7  6  5) 166-C(  1  7  2) 167-C(  1  6  7) 168-C(  4  2  1)
 169-C(  1  3  7) 170-C(  4  5  6) 171-C(  7  6  2) 172-C(  1  4  2)
 173-C(  2  1  4) 174-C(  2  7  6) 175-C(  3  7  1) 176-C(  7  1  3)
 177-C(  5  6  4) 178-C(  6  4  5) 179-C(  6  2  7) 180-C(  6  4  7)
 181-C(  5  7  1) 182-C(  3  4  2) 183-C(  2  1  6) 184-C(  4  7  6)
 185-C(  7  6  4) 186-C(  1  6  2) 187-C(  1  5  7) 188-C(  7  1  5)
 189-C(  2  3  4) 190-C(  4  2  3) 191-C(  6  2  1) 192-C(  5  2  1)
 193-C(  1  4  7) 194-C(  3  4  5) 195-C(  7  6  3) 196-C(  1  5  2)
 197-C(  2  1  5) 198-C(  3  7  6) 199-C(  4  7  1) 200-C(  7  1  4)
 201-C(  4  5  3) 202-C(  5  3  4) 203-C(  6  3  7) 204-C(  4  3  1)
 205-C(  2  3  7) 206-C(  1  4  3) 207-C(  3  1  4) 208-C(  1  6  5)
 209-C(  3  7  2) 210-C(  5  4  7) 211-C(  5  6  1) 212-C(  4  7  5)
 213-C(  7  5  4) 214-C(  2  7  3) 215-C(  1  5  6) 216-C(  5  3  1)
 217-C(  2  4  7) 218-C(  3  4  6) 219-C(  6  5  2) 220-C(  1  5  3)
 221-C(  3  1  5) 222-C(  2  6  5) 223-C(  4  7  2) 224-C(  7  2  4)
 225-C(  4  6  3) 226-C(  6  3  4) 227-C(  5  2  6) 228-C(  5  3  7)
 229-C(  4  6  1) 230-C(  4  5  2) 231-C(  3  2  6) 232-C(  3  7  5)
 233-C(  7  5  3) 234-C(  2  6  3) 235-C(  1  4  6) 236-C(  6  1  4)
 237-C(  2  4  5) 238-C(  5  2  4) 239-C(  6  3  2) 240-C(  6  3  1)
 241-C(  2  3  5) 242-C(  1  6  3) 243-C(  3  1  6) 244-C(  3  6  5)
 245-C(  3  5  2) 246-C(  5  2  7) 247-C(  5  6  3) 248-C(  2  7  5)
 249-C(  7  5  2) 250-C(  2  5  3) 251-C(  3  5  6) 252-C(  5  4  1)
 253-C(  1  5  4) 254-C(  4  1  5) 255-C(  4  3  7) 256-C(  3  7  4)
 257-C(  7  4  3) 258-C(  6  4  2) 259-C(  2  6  4) 260-C(  4  2  6)

 GCALCO - MAX INDICES DIRECT LATTICE VECTOR    14    14    14
 NO.OF VECTORS CREATED 6999 STARS  105 RMAX    65.17278 BOHR
 TTTTTTTTTTTTTTTTTTTTTTTTTTTTTT gordsh1     TELAPSE      157.36 TCPU      154.13

 MATRIX SIZE: P(G)  294174, F(G)   23821, P(G) IRR  160936, F(G) IRR   25136
 MAX G-VECTOR INDEX FOR 1- AND 2-ELECTRON INTEGRALS1385

 TTTTTTTTTTTTTTTTTTTTTTTTTTTTTT INPUT       TELAPSE      157.36 TCPU      154.13
 TTTTTTTTTTTTTTTTTTTTTTTTTTTTTT SYMM        TELAPSE      157.36 TCPU      154.13

 ***** NEW REFERENCE GEOMETRY *****
 TTTTTTTTTTTTTTTTTTTTTTTTTTTTTT INT_SCREEN  TELAPSE      157.37 TCPU      154.14

 DFT PARAMETERS

     ATOM       ELECTRONS   NET CHARGE   R(ANGSTROM)
   1   3  LI      3.0000      0.0000     1.57000000
   3   8  O       8.0000      0.0000     0.74000000

 SIZE OF GRID=      95368
 TTTTTTTTTTTTTTTTTTTTTTTTTTTTTT MAKE_GRID2  TELAPSE      176.40 TCPU      173.07
 BECKE WEIGHT FUNCTION
 RADSAFE =     2.00
 TOLERANCES - DENSITY:10**- 6; POTENTIAL:10**- 9; GRID WGT:10**-14

 RADIAL INTEGRATION  - INTERVALS (POINTS,UPPER LIMIT):            1( 99,  4.0*R)

 ANGULAR INTEGRATION - INTERVALS (ACCURACY LEVEL [N. POINTS] UPPER LIMIT):
  1(  6[ 146]   0.2)  2( 11[ 302]   0.5)  3( 14[ 590]   0.9)  4( 18[1454]   3.5)
  5( 14[ 590]9999.0)
 CYCLE   0   ALPHA   18.359863  EPSILON    2.397084  DELTA    1.8360E+01
 TTTTTTTTTTTTTTTTTTTTTTTTTTTTTT MOQGAD      TELAPSE      179.65 TCPU      176.31
 TTTTTTTTTTTTTTTTTTTTTTTTTTTTTT CP_MONMON   TELAPSE      179.82 TCPU      176.47
 DIIS TEST: 0.21309E+00 AT CPHF  CYCLE   1 - MIX   60 %
 CYCLE   1   ALPHA   20.226554  EPSILON    2.539129  DELTA    1.8667E+00
 TTTTTTTTTTTTTTTTTTTTTTTTTTTTTT MOQGAD      TELAPSE      182.94 TCPU      179.57
 TTTTTTTTTTTTTTTTTTTTTTTTTTTTTT CP_MONMON   TELAPSE      183.10 TCPU      179.73
 DIIS TEST: 0.11358E-01 AT CPHF  CYCLE   2 - DIIS ACTIVE - HISTORY:     2 CYCLES
 CYCLE   2   ALPHA   20.809896  EPSILON    2.583518  DELTA    5.8334E-01
 TTTTTTTTTTTTTTTTTTTTTTTTTTTTTT MOQGAD      TELAPSE      186.22 TCPU      182.84
 TTTTTTTTTTTTTTTTTTTTTTTTTTTTTT CP_MONMON   TELAPSE      186.39 TCPU      183.00
 DIIS TEST: 0.55264E-03 AT CPHF  CYCLE   3 - DIIS ACTIVE - HISTORY:     3 CYCLES
 CYCLE   3   ALPHA   20.873620  EPSILON    2.588367  DELTA    6.3725E-02
 TTTTTTTTTTTTTTTTTTTTTTTTTTTTTT MOQGAD      TELAPSE      189.51 TCPU      186.10
 TTTTTTTTTTTTTTTTTTTTTTTTTTTTTT CP_MONMON   TELAPSE      189.67 TCPU      186.26
 DIIS TEST: 0.14192E-06 AT CPHF  CYCLE   4 - DIIS ACTIVE - HISTORY:     4 CYCLES
 CYCLE   4   ALPHA   20.873421  EPSILON    2.588352  DELTA   -1.9912E-04
 TTTTTTTTTTTTTTTTTTTTTTTTTTTTTT CP_SC       TELAPSE      190.79 TCPU      187.36

 *******************************************************************************

 ELECTRIC FIELD APPLIED ALONG CARTESIAN DIRECTION Y

 *******************************************************************************
 THE NUMBER OF SYMMETRY OPERATORS HAS BEEN REDUCED FROM 48 TO  1

 NEW GRID IN RECIPROCAL SPACE
 *******************************************************************************
 POINTS IN THE IBZ                 260 SHRINKING FACTORS               8  8  8
 *******************************************************************************
 *** K POINTS COORDINATES (OBLIQUE COORDINATES IN UNITS OF SHRINK FAC. )
   1-R(  0  0  0)   2-C(  1  0  0)   3-C(  0  1  0)   4-C(  7  7  7)
   5-C(  0  0  1)   6-C(  2  0  0)   7-C(  0  2  0)   8-C(  6  6  6)
   9-C(  0  0  2)  10-C(  3  0  0)  11-C(  0  3  0)  12-C(  5  5  5)
  13-C(  0  0  3)  14-R(  4  0  0)  15-R(  0  4  0)  16-R(  4  4  4)
  17-R(  0  0  4)  18-C(  1  1  0)  19-C(  0  1  1)  20-C(  1  0  1)
  21-C(  2  1  0)  22-C(  1  2  0)  23-C(  6  6  7)  24-C(  7  7  1)
  25-C(  0  2  1)  26-C(  1  0  2)  27-C(  1  7  7)  28-C(  2  0  1)
  29-C(  0  1  2)  30-C(  6  7  6)  31-C(  7  6  6)  32-C(  7  1  7)
  33-C(  3  1  0)  34-C(  1  3  0)  35-C(  5  5  6)  36-C(  7  7  2)
  37-C(  0  3  1)  38-C(  1  0  3)  39-C(  2  7  7)  40-C(  3  0  1)
  41-C(  0  1  3)  42-C(  5  6  5)  43-C(  6  5  5)  44-C(  7  2  7)
  45-C(  4  1  0)  46-C(  1  4  0)  47-C(  4  4  5)  48-C(  7  7  3)
  49-C(  0  4  1)  50-C(  1  0  4)  51-C(  3  7  7)  52-C(  4  0  1)
  53-C(  0  1  4)  54-C(  4  5  4)  55-C(  5  4  4)  56-C(  7  3  7)
  57-C(  5  1  0)  58-C(  1  5  0)  59-C(  3  3  4)  60-C(  7  7  4)
  61-C(  0  5  1)  62-C(  1  0  5)  63-C(  4  7  7)  64-C(  5  0  1)
  65-C(  0  1  5)  66-C(  3  4  3)  67-C(  4  3  3)  68-C(  7  4  7)
  69-C(  6  1  0)  70-C(  1  6  0)  71-C(  2  2  3)  72-C(  7  7  5)
  73-C(  0  6  1)  74-C(  1  0  6)  75-C(  5  7  7)  76-C(  6  0  1)
  77-C(  0  1  6)  78-C(  2  3  2)  79-C(  3  2  2)  80-C(  7  5  7)
  81-C(  7  1  0)  82-C(  1  1  2)  83-C(  0  7  1)  84-C(  1  0  7)
  85-C(  6  7  7)  86-C(  1  2  1)  87-C(  2  2  0)  88-C(  0  2  2)
  89-C(  2  0  2)  90-C(  3  2  0)  91-C(  2  3  0)  92-C(  5  5  7)
  93-C(  6  6  1)  94-C(  0  3  2)  95-C(  2  0  3)  96-C(  1  6  6)
  97-C(  3  0  2)  98-C(  0  2  3)  99-C(  5  7  5) 100-C(  7  5  5)
 101-C(  6  1  6) 102-C(  4  2  0) 103-C(  2  4  0) 104-C(  4  4  6)
 105-C(  6  6  2) 106-C(  0  4  2) 107-C(  2  0  4) 108-C(  2  6  6)
 109-C(  4  0  2) 110-C(  0  2  4) 111-C(  4  6  4) 112-C(  6  4  4)
 113-C(  6  2  6) 114-C(  5  2  0) 115-C(  2  5  0) 116-C(  3  3  5)
 117-C(  6  6  3) 118-C(  0  5  2) 119-C(  2  0  5) 120-C(  3  6  6)
 121-C(  5  0  2) 122-C(  0  2  5) 123-C(  3  5  3) 124-C(  5  3  3)
 125-C(  6  3  6) 126-C(  6  2  0) 127-C(  2  2  4) 128-C(  0  6  2)
 129-C(  2  0  6) 130-C(  4  6  6) 131-C(  2  4  2) 132-C(  3  3  0)
 133-C(  0  3  3) 134-C(  3  0  3) 135-C(  4  3  0) 136-C(  3  4  0)
 137-C(  4  4  7) 138-C(  5  5  1) 139-C(  0  4  3) 140-C(  3  0  4)
 141-C(  1  5  5) 142-C(  4  0  3) 143-C(  0  3  4) 144-C(  4  7  4)
 145-C(  7  4  4) 146-C(  5  1  5) 147-C(  5  3  0) 148-C(  3  3  6)
 149-C(  0  5  3) 150-C(  3  0  5) 151-C(  2  5  5) 152-C(  3  6  3)
 153-R(  4  4  0) 154-R(  0  4  4) 155-R(  4  0  4) 156-C(  3  2  1)
 157-C(  1  2  7) 158-C(  1  3  2) 159-C(  2  1  3) 160-C(  1  7  6)
 161-C(  2  7  1) 162-C(  6  5  7) 163-C(  6  7  1) 164-C(  5  7  6)
 165-C(  7  6  5) 166-C(  1  7  2) 167-C(  1  6  7) 168-C(  4  2  1)
 169-C(  1  3  7) 170-C(  4  5  6) 171-C(  7  6  2) 172-C(  1  4  2)
 173-C(  2  1  4) 174-C(  2  7  6) 175-C(  3  7  1) 176-C(  7  1  3)
 177-C(  5  6  4) 178-C(  6  4  5) 179-C(  6  2  7) 180-C(  6  4  7)
 181-C(  5  7  1) 182-C(  3  4  2) 183-C(  2  1  6) 184-C(  4  7  6)
 185-C(  7  6  4) 186-C(  1  6  2) 187-C(  1  5  7) 188-C(  7  1  5)
 189-C(  2  3  4) 190-C(  4  2  3) 191-C(  6  2  1) 192-C(  5  2  1)
 193-C(  1  4  7) 194-C(  3  4  5) 195-C(  7  6  3) 196-C(  1  5  2)
 197-C(  2  1  5) 198-C(  3  7  6) 199-C(  4  7  1) 200-C(  7  1  4)
 201-C(  4  5  3) 202-C(  5  3  4) 203-C(  6  3  7) 204-C(  4  3  1)
 205-C(  2  3  7) 206-C(  1  4  3) 207-C(  3  1  4) 208-C(  1  6  5)
 209-C(  3  7  2) 210-C(  5  4  7) 211-C(  5  6  1) 212-C(  4  7  5)
 213-C(  7  5  4) 214-C(  2  7  3) 215-C(  1  5  6) 216-C(  5  3  1)
 217-C(  2  4  7) 218-C(  3  4  6) 219-C(  6  5  2) 220-C(  1  5  3)
 221-C(  3  1  5) 222-C(  2  6  5) 223-C(  4  7  2) 224-C(  7  2  4)
 225-C(  4  6  3) 226-C(  6  3  4) 227-C(  5  2  6) 228-C(  5  3  7)
 229-C(  4  6  1) 230-C(  4  5  2) 231-C(  3  2  6) 232-C(  3  7  5)
 233-C(  7  5  3) 234-C(  2  6  3) 235-C(  1  4  6) 236-C(  6  1  4)
 237-C(  2  4  5) 238-C(  5  2  4) 239-C(  6  3  2) 240-C(  6  3  1)
 241-C(  2  3  5) 242-C(  1  6  3) 243-C(  3  1  6) 244-C(  3  6  5)
 245-C(  3  5  2) 246-C(  5  2  7) 247-C(  5  6  3) 248-C(  2  7  5)
 249-C(  7  5  2) 250-C(  2  5  3) 251-C(  3  5  6) 252-C(  5  4  1)
 253-C(  1  5  4) 254-C(  4  1  5) 255-C(  4  3  7) 256-C(  3  7  4)
 257-C(  7  4  3) 258-C(  6  4  2) 259-C(  2  6  4) 260-C(  4  2  6)

 GCALCO - MAX INDICES DIRECT LATTICE VECTOR    14    14    14
 NO.OF VECTORS CREATED 6999 STARS  105 RMAX    65.17278 BOHR
 TTTTTTTTTTTTTTTTTTTTTTTTTTTTTT gordsh1     TELAPSE      190.91 TCPU      187.48

 MATRIX SIZE: P(G)  294174, F(G)   23821, P(G) IRR  160936, F(G) IRR   25136
 MAX G-VECTOR INDEX FOR 1- AND 2-ELECTRON INTEGRALS1385

 TTTTTTTTTTTTTTTTTTTTTTTTTTTTTT INPUT       TELAPSE      190.91 TCPU      187.48
 TTTTTTTTTTTTTTTTTTTTTTTTTTTTTT SYMM        TELAPSE      190.91 TCPU      187.48

 ***** NEW REFERENCE GEOMETRY *****
 TTTTTTTTTTTTTTTTTTTTTTTTTTTTTT INT_SCREEN  TELAPSE      190.91 TCPU      187.49

 DFT PARAMETERS

     ATOM       ELECTRONS   NET CHARGE   R(ANGSTROM)
   1   3  LI      3.0000      0.0000     1.57000000
   3   8  O       8.0000      0.0000     0.74000000

 SIZE OF GRID=      95368
 TTTTTTTTTTTTTTTTTTTTTTTTTTTTTT MAKE_GRID2  TELAPSE      209.95 TCPU      206.42
 BECKE WEIGHT FUNCTION
 RADSAFE =     2.00
 TOLERANCES - DENSITY:10**- 6; POTENTIAL:10**- 9; GRID WGT:10**-14

 RADIAL INTEGRATION  - INTERVALS (POINTS,UPPER LIMIT):            1( 99,  4.0*R)

 ANGULAR INTEGRATION - INTERVALS (ACCURACY LEVEL [N. POINTS] UPPER LIMIT):
  1(  6[ 146]   0.2)  2( 11[ 302]   0.5)  3( 14[ 590]   0.9)  4( 18[1454]   3.5)
  5( 14[ 590]9999.0)
 CYCLE   0   ALPHA   18.359865  EPSILON    2.397084  DELTA    1.8360E+01
 TTTTTTTTTTTTTTTTTTTTTTTTTTTTTT MOQGAD      TELAPSE      213.21 TCPU      209.67
 TTTTTTTTTTTTTTTTTTTTTTTTTTTTTT CP_MONMON   TELAPSE      213.37 TCPU      209.83
 DIIS TEST: 0.21309E+00 AT CPHF  CYCLE   1 - MIX   60 %
 CYCLE   1   ALPHA   20.226556  EPSILON    2.539129  DELTA    1.8667E+00
 TTTTTTTTTTTTTTTTTTTTTTTTTTTTTT MOQGAD      TELAPSE      216.49 TCPU      212.92
 TTTTTTTTTTTTTTTTTTTTTTTTTTTTTT CP_MONMON   TELAPSE      216.65 TCPU      213.08
 DIIS TEST: 0.11358E-01 AT CPHF  CYCLE   2 - DIIS ACTIVE - HISTORY:     2 CYCLES
 CYCLE   2   ALPHA   20.809898  EPSILON    2.583518  DELTA    5.8334E-01
 TTTTTTTTTTTTTTTTTTTTTTTTTTTTTT MOQGAD      TELAPSE      219.76 TCPU      216.18
 TTTTTTTTTTTTTTTTTTTTTTTTTTTTTT CP_MONMON   TELAPSE      219.93 TCPU      216.34
 DIIS TEST: 0.55264E-03 AT CPHF  CYCLE   3 - DIIS ACTIVE - HISTORY:     3 CYCLES
 CYCLE   3   ALPHA   20.873623  EPSILON    2.588367  DELTA    6.3725E-02
 TTTTTTTTTTTTTTTTTTTTTTTTTTTTTT MOQGAD      TELAPSE      223.04 TCPU      219.44
 TTTTTTTTTTTTTTTTTTTTTTTTTTTTTT CP_MONMON   TELAPSE      223.20 TCPU      219.60
 DIIS TEST: 0.14192E-06 AT CPHF  CYCLE   4 - DIIS ACTIVE - HISTORY:     4 CYCLES
 CYCLE   4   ALPHA   20.873423  EPSILON    2.588352  DELTA   -1.9912E-04
 TTTTTTTTTTTTTTTTTTTTTTTTTTTTTT CP_SC       TELAPSE      223.48 TCPU      219.87

 *******************************************************************************

 ELECTRIC FIELD APPLIED ALONG CARTESIAN DIRECTION Z

 *******************************************************************************
 THE NUMBER OF SYMMETRY OPERATORS HAS BEEN REDUCED FROM 48 TO  1

 NEW GRID IN RECIPROCAL SPACE
 *******************************************************************************
[...]
         SITE www.physics.nist.gov/constants.


 GCALCO - MAX INDICES DIRECT LATTICE VECTOR    14    14    14
 NO.OF VECTORS CREATED 6999 STARS  105 RMAX    65.17278 BOHR

 CAPPA:IS1  8;IS2  8;IS3  8; K PTS MONK NET  29; SYMMOPS:K SPACE  48;G SPACE  48

 TTTTTTTTTTTTTTTTTTTTTTTTTTTTTT gordsh1     TELAPSE      588.35 TCPU      581.01

 MATRIX SIZE: P(G)  294174, F(G)   23821, P(G) IRR    6438, F(G) IRR    1568
 MAX G-VECTOR INDEX FOR 1- AND 2-ELECTRON INTEGRALS1385

 TTTTTTTTTTTTTTTTTTTTTTTTTTTTTT INPUT       TELAPSE      588.36 TCPU      581.02

 THERE ARE NO SYMMETRY ALLOWED DIRECTIONS
 TTTTTTTTTTTTTTTTTTTTTTTTTTTTTT SYMM        TELAPSE      588.40 TCPU      581.07
 TTTTTTTTTTTTTTTTTTTTTTTTTTTTTT INT_SCREEN  TELAPSE      588.41 TCPU      581.07

 COMPUTING IR TENSOR ALONG DIRECTION X
 COMPUTING IR TENSOR ALONG DIRECTION Y
 COMPUTING IR TENSOR ALONG DIRECTION Z

 TTTTTTTTTTTTTTTTTTTTTTTTTTTTTT IR TENSOR   TELAPSE     1306.40 TCPU     1293.99

 COMPUTING RAMAN TENSOR ALONG DIRECTION XX
 COMPUTING RAMAN TENSOR ALONG DIRECTION XY
 COMPUTING RAMAN TENSOR ALONG DIRECTION XZ
 COMPUTING RAMAN TENSOR ALONG DIRECTION YY
 COMPUTING RAMAN TENSOR ALONG DIRECTION YZ
 COMPUTING RAMAN TENSOR ALONG DIRECTION ZZ


 GCALCO - MAX INDICES DIRECT LATTICE VECTOR    14    14    14
 NO.OF VECTORS CREATED 6999 STARS  105 RMAX    65.17278 BOHR

 CAPPA:IS1  8;IS2  8;IS3  8; K PTS MONK NET  29; SYMMOPS:K SPACE  48;G SPACE  48

 TTTTTTTTTTTTTTTTTTTTTTTTTTTTTT gordsh1     TELAPSE     3723.58 TCPU     3698.38

 MATRIX SIZE: P(G)  294174, F(G)   23821, P(G) IRR    6438, F(G) IRR    1568
 MAX G-VECTOR INDEX FOR 1- AND 2-ELECTRON INTEGRALS1385

 TTTTTTTTTTTTTTTTTTTTTTTTTTTTTT INPUT       TELAPSE     3723.58 TCPU     3698.38

 THERE ARE NO SYMMETRY ALLOWED DIRECTIONS
 TTTTTTTTTTTTTTTTTTTTTTTTTTTTTT SYMM        TELAPSE     3770.02 TCPU     3744.58
 TTTTTTTTTTTTTTTTTTTTTTTTTTTTTT INT_SCREEN  TELAPSE     3770.02 TCPU     3744.58
 TTTTTTTTTTTTTTTTTTTTTTTTTTTTTT RAMAN       TELAPSE     3770.03 TCPU     3744.59


 *******************************************************************************
 *                                                                             *
 *                                                                             *
 *         FFFFF  RRRR   EEEE   QQQ   U   U  EEEE  N   N   CCC  Y   Y          *
 *         F      R   R  E     Q   Q  U   U  E     NN  N  C      Y Y           *
 *         FFF    RRRR   EEEE  Q   Q  U   U  EEEE  N N N  C       Y            *
 *         F      R   R  E     Q  QQ  U   U  E     N  NN  C       Y            *
 *         F      R   R  EEEE   QQ Q   UUU   EEEE  N   N   CCC    Y            *
 *                                                                             *
 *                                                                             *
 * CALCULATION OF PHONON FREQUENCIES AT THE GAMMA POINT.                       *
 *                                                                             *
 * SYMMETRY IS EXPLOITED TO BUILD THE TOTAL HESSIAN MATRIX.                    *
 * (F. PASCALE PHD THESIS TURIN-PARIS 2002)                                    *
 *                                                                             *
 *******************************************************************************


 * INTENSITIES COMPUTED VIA THE CPHF ANALYTICAL APPROACH                       *
 *                                                                             *
 * REFERENCES TO BE QUOTED WHEN USING THIS MODULE:                             *
 *                                                                             *
 * F. Pascale, C.M. Zicovich-Wilson, F. Lopez, B. Civalleri                    *
 * R. Orlando, R. Dovesi                                                       *
 * The calculation of the vibration frequencies of crystalline                 *
 * compounds and its implementation in the CRYSTAL code                        *
 * J. Comput. Chem. 25 (2004) 888-897                                          *
 *                                                                             *
 * C.M. Zicovich-Wilson, F. Pascale, C. Roetti, V.R. Saunders,                 *
 * R. Orlando, R. Dovesi                                                       *
 * The calculation of the vibration frequencies of alpha-quartz:               *
 * the effect of hamiltonian and basis set                                     *
 * J. Comput. Chem. 25 (2004) 1873-1881                                        *
 *******************************************************************************


 *                                                                             *
 * FOR THE ANALYTICAL IR INTENSITIES MODULE PLEASE CITE:                       *
 *                                                                             *
 * L. Maschio, B. Kirtman, R. Orlando, M. Rerat,                               *
 * Ab initio analytical infrared intensities for periodic systems              *
 * through a coupled perturbed Hartree-Fock/Kohn-Sham method                   *
 * J. Chem. Phys. 137, 204113 (2012)                                           *
 *******************************************************************************



 ATOMS ISOTOPIC MASS (AMU) FOR FREQUENCY CALCULATION 

    1 LI      7.0160    2 LI      7.0160    3 O      15.9949

 INFORMATION CONCERNING THE SCF+GRADIENT CALCULATIONS REQUIRED FOR
 GENERATING FREQUENCIES. IN PRINCIPLE 3N+1 SCF + GRADIENT
 CALCULATIONS  ARE REQUIRED;
 FOR EACH OF THEM THE REMAINING POINT SYMMETRY IS INDICATED.
 POINT SYMMETRY PERMITS TO GENERATE GRADIENTS FOR DISPLACEMENT B 
 STARTING FROM THE GRADIENT GENERATED BY DISPLACEMENT A.

   N   LABEL SYMBOL DISPLACEMENT     SYM. 

   1     EQUILIBRIUM GEOMETRY           48

   2      1   LI           DX           4
   3      1   LI           DY        GENERATED FROM LINE X WITH OP   6
   4      1   LI           DZ        GENERATED FROM LINE X WITH OP   5
   5      3   O            DX        GENERATED BY TRANSLATIONAL INVARIANCE
   6      3   O            DY        GENERATED BY TRANSLATIONAL INVARIANCE
   7      3   O            DZ        GENERATED BY TRANSLATIONAL INVARIANCE
 USE OF RESIDUAL SYMMETRY AFTER DISPLACEMENT

 NUMERICAL GRADIENT COMPUTED WITH A SINGLE DISPLACEMENT (+DX) FOR EACH
 CARTESIAN COORDINATE WITH RESPECT TO THE EQUILIBRIUM CONFIGURATION
 DX=  0.003 ANGSTROM
 NUMBER OF IRREDUCIBLE ATOMS                     2
 NUMBER OF SCF+GRADIENT CALCULATIONS             2

  ATOM  SYMOP  ORDER
    1     24      4
    3     48      6

 ATOM  : IRREDUCIBLE ATOM
 SYMOP : NUMBER OF SYMMETRY OPERATORS THAT DOESN'T MOVE THE IRREDUCIBLE ATOM
 ORDER : MAXIMUM ORDER AMONG THE OPERATORS OF THE IRREDUCIBLE ATOM

 *******************************************************************************

 TTTTTTTTTTTTTTTTTTTTTTTTTTTTTT gordsh1     TELAPSE     3770.03 TCPU     3744.59

 MATRIX SIZE: P(G)  294174, F(G)   23821, P(G) IRR    6438, F(G) IRR    1568
 MAX G-VECTOR INDEX FOR 1- AND 2-ELECTRON INTEGRALS1385

 TTTTTTTTTTTTTTTTTTTTTTTTTTTTTT INPUT       TELAPSE     3770.04 TCPU     3744.60

 THERE ARE NO SYMMETRY ALLOWED DIRECTIONS
 TTTTTTTTTTTTTTTTTTTTTTTTTTTTTT SYMM        TELAPSE     3770.05 TCPU     3744.61
 TTTTTTTTTTTTTTTTTTTTTTTTTTTTTT INT_SCREEN  TELAPSE     3770.05 TCPU     3744.61

 HHHHHHHHHHHHHHHHHHHHHHHHHHHHHHHHHHHHHHHHHHHHHHHHHHHHHHHHHHHHHHHHHHHHHHHHHHHHHHH
                   FORCE CONSTANT MATRIX - NUMERICAL ESTIMATE
 HHHHHHHHHHHHHHHHHHHHHHHHHHHHHHHHHHHHHHHHHHHHHHHHHHHHHHHHHHHHHHHHHHHHHHHHHHHHHHH
 MAX ABS(DGRAD): MAXIMUM ABSOLUTE GRADIENT DIFFERENCE WITH RESPECT TO
                 THE CENTRAL POINT
 DE:             ENERGY DIFFERENCE WITH RESPECT TO THE CENTRAL POINT
                 (DE IS EXPECTED TO BE POSITIVE FOR ALL DISPLACEMENTS)

   ATOM      MAX ABS(DGRAD)       TOTAL ENERGY (AU)  N.CYC      DE       SYM
    CENTRAL POINT             -9.036109481756E+01     0     0.0000E+00    48
    1 LI DX   3.3759E-04      -9.036109384652E+01     7     9.7104E-07     4
    1 LI DY                   GENERATED FROM A PREVIOUS LINE
    1 LI DZ                   GENERATED FROM A PREVIOUS LINE
    3 O                       GENERATED BY TRANSLATIONAL INVARIANCE

 GCALCO - MAX INDICES DIRECT LATTICE VECTOR    14    14    14
 NO.OF VECTORS CREATED 6999 STARS  105 RMAX    65.17278 BOHR

 CAPPA:IS1  8;IS2  8;IS3  8; K PTS MONK NET  29; SYMMOPS:K SPACE  48;G SPACE  48

 TTTTTTTTTTTTTTTTTTTTTTTTTTTTTT gordsh1     TELAPSE     3882.78 TCPU     3856.74

 MATRIX SIZE: P(G)  294174, F(G)   23821, P(G) IRR    6438, F(G) IRR    1568
 MAX G-VECTOR INDEX FOR 1- AND 2-ELECTRON INTEGRALS1385

 TTTTTTTTTTTTTTTTTTTTTTTTTTTTTT INPUT       TELAPSE     3882.79 TCPU     3856.74

 THERE ARE NO SYMMETRY ALLOWED DIRECTIONS
 TTTTTTTTTTTTTTTTTTTTTTTTTTTTTT SYMM        TELAPSE     3882.86 TCPU     3856.81
 TTTTTTTTTTTTTTTTTTTTTTTTTTTTTT INT_SCREEN  TELAPSE     3882.86 TCPU     3856.81

 ATOMIC BORN CHARGE TENSOR (UNITS OF e, ELECTRON CHARGE).
 DYNAMIC CHARGE = 1/3 * TRACE .

 ATOM   1 LI DYNAMIC CHARGE     0.896950

              1           2           3
   1     8.9695E-01  3.6228E-26 -3.6086E-26
   2     3.6086E-26  8.9695E-01 -1.0667E-24
   3    -3.6228E-26 -1.0668E-24  8.9695E-01

 ATOM   2 LI DYNAMIC CHARGE     0.896950

              1           2           3
   1     8.9695E-01 -1.0668E-24 -3.6228E-26
   2     3.6228E-26  8.9695E-01  3.6086E-26
   3    -1.1390E-24  3.6228E-26  8.9695E-01

 ATOM   3 O  DYNAMIC CHARGE    -1.793899

              1           2           3
   1    -1.7939E+00  1.0306E-24  7.2314E-26
   2    -7.2314E-26 -1.7939E+00  1.0306E-24
   3     1.1752E-24  1.0306E-24 -1.7939E+00

 +++ SYMMETRY ADAPTION OF VIBRATIONAL MODES +++

 SYMMETRY INFORMATION:
 K-LITTLE GROUP: CLASS TABLE, CHARACTER TABLE.
 IRREP-(DIMENSION, NO. IRREDUCIBLE SETS)
 [WARNINGS: (1) ONLY ACTIVE IRREPS ARE GENERATED AND LISTED.
            (2) ONLY RELEVANT CLASSES ARE CONSIDERED IN THE CHARACTER TABLE
            (3) SYMBOLS MAY NOT FULLY COINCIDE WITH THOSE FROM TEXT BOOKS.]

 (P, D, RP, RD, STAND FOR PAIRING, DOUBLING, REAL PAIRING AND REAL DOUBLING 
 OF THE IRREPS (SEE MANUAL))

 CLASS  | GROUP OPERATORS (SEE SYMMOPS KEYWORD)
 --------------------------------------------------------------------
 C2     |   2;   3;   4;
 C3     |   5;  11;   7;   9;   6;  12;  10;   8;
 C2'    |  13;  14;  17;  18;  23;  24;
 C4     |  15;  16;  19;  20;  21;  22;
 I      |  25;
 SGH    |  26;  27;  28;
 S6     |  29;  35;  31;  33;  30;  36;  34;  32;
 SGD    |  37;  38;  41;  42;  47;  48;
 S4     |  39;  40;  43;  44;  45;  46;

 IRREP/CLA      E     C2     C3    C2'     C4      I    SGH     S6    SGD     S4
 -------------------------------------------------------------------------------
  MULTIP |      1      3      8      6      6      1      3      8      6      6
 -------------------------------------------------------------------------------
    F2g  |   3.00  -1.00   0.00   1.00  -1.00   3.00  -1.00   0.00   1.00  -1.00
    F1u  |   3.00  -1.00   0.00  -1.00   1.00  -3.00   1.00   0.00   1.00  -1.00

 F2g-(3,   1);
 F1u-(3,   2);

 BORN CHARGE VECTOR IN THE BASIS OF NORMAL MODES (UNITS OF e*M_E**(-1/2) ).
 e AND M_E ARE UNITS OF ELECTRON CHARGE AND MASS, RESPECTIVELY.

 MODE         X              Y              Z
   1   -0.50592E-18    0.54183E-44   -0.16944E-42
   2   -0.10996E-41    0.24455E-17   -0.18847E-41
   3   -0.70642E-43   -0.13470E-41    0.24455E-17
   4   -0.15368E-01   -0.61951E-27    0.10068E-25
   5    0.88290E-26   -0.15368E-01    0.88290E-26
   6    0.61951E-27    0.88290E-26   -0.15368E-01
   7   -0.11386E-17   -0.89313E-30    0.68951E-26
   8    0.68969E-26    0.28043E-17   -0.68969E-26
   9    0.89313E-30   -0.68951E-26   -0.57836E-18

 HHHHHHHHHHHHHHHHHHHHHHHHHHHHHHHHHHHHHHHHHHHHHHHHHHHHHHHHHHHHHHHHHHHHHHHHHHHHHH
 VIBRATIONAL CONTRIBUTIONS TO THE STATIC DIELECTRIC TENSOR (OSCILLATOR
 STRENGTHS) ARE PURE NUMBERS. THEY ARE COMPUTED FOR EACH nth MODE AS:

   f_(n,ij) = 1 / (4 * pi * eps0) * 4 * pi / V * Z_(n,i) * Z_(n,j) / nu_n**2

 WHERE:
  1/(4*pi*eps0)  1 A.U. [M*L**3*T**(-4)*C**(-2)]
  V              CELL VOLUME (BOHR**3) [L**3]
  Z_(n,i)        ith COMPONENT OF BORN CHARGE VECTOR IN THE BASIS
                 OF NORMAL MODES ( e*M_E**(-1/2) ) [C*T*M**(-1/2)]
  nu_n           FREQUENCY (HARTREE) [T**(-1)]
  e, M_E         UNITS OF ELECTRON CHARGE AND MASS, RESPECTIVELY
  M, L, T, C     MASS, LENGTH, TIME, CURRENT, RESPECTIVELY

 HHHHHHHHHHHHHHHHHHHHHHHHHHHHHHHHHHHHHHHHHHHHHHHHHHHHHHHHHHHHHHHHHHHHHHHHHHHHHH

 MODE      CARTESIAN AXES SYSTEM

   4       3.78961    0.00000   -0.00000
           0.00000    0.00000   -0.00000
          -0.00000   -0.00000    0.00000

   5       0.00000   -0.00000    0.00000
          -0.00000    3.78961   -0.00000
           0.00000   -0.00000    0.00000

   6       0.00000    0.00000   -0.00000
           0.00000    0.00000   -0.00000
          -0.00000   -0.00000    3.78961

 SUM TENSOR OF THE VIBRATIONAL CONTRIBUTIONS TO THE STATIC DIELECTRIC     TENSOR

           3.78961   -0.00000   -0.00000
          -0.00000    3.78961   -0.00000
          -0.00000   -0.00000    3.78961

 INTEGRATED IR INTENSITIES, IN UNITS OF KM/MOL, ARE COMPUTED UNDER THE
 HYPOTHESIS OF ISOTROPIC RESPONSE (I.E. POWDER SAMPLE):

   INTENS_n = 1 / (4 * pi * eps0) * pi * N_AV / 3 / c**2 *
                             * d_n * ( Z_(n,x)**2 + Z_(n,y)**2 + Z_(n,z)**2 )
            = 0.17770712E+07 * d_n * ( Z_(n,x)**2 + Z_(n,y)**2 + Z_(n,z)**2 )

 WHERE:
  1/(4*pi*eps0)  1 A.U. [M*L**3*T**(-4)*C**(-2)]
  N_AV           AVOGADRO'S NUMBER [QM**(-1)]
  c              SPEED OF LIGHT [L*T**(-1)]
  d_n            DEGENERACY OF THE MODE
  Z_(n,x)        xth COMPONENT OF BORN CHARGE VECTOR IN THE BASIS
                 OF NORMAL MODES ( e*M_E**(-1/2) ) [C*T*M**(-1/2)]
  M,L,T,C,QM     MASS, LENGTH, TIME, CURRENT, QUANTITY OF MATTER, RESPECTIVELY

 HHHHHHHHHHHHHHHHHHHHHHHHHHHHHHHHHHHHHHHHHHHHHHHHHHHHHHHHHHHHHHHHHHHHHHHHHHHHHH
 EIGENVALUES (EIGV) OF THE MASS WEIGHTED HESSIAN MATRIX AND HARMONIC TRANSVERSE
 OPTICAL (TO) FREQUENCIES. IRREP LABELS REFER TO SYMMETRY REPRESENTATION
 ANALYSIS; A AND I INDICATE WHETHER THE MODE IS ACTIVE OR INACTIVE,
 RESPECTIVELY, FOR IR AND RAMAN; INTEGRATED IR INTENSITIES IN BRACKETS.

 CONVERSION FACTORS FOR FREQUENCIES:
      1 CM**(-1) =   0.4556335E-05 HARTREE
      1 THZ      =   0.3335641E+02 CM**(-1)

 HHHHHHHHHHHHHHHHHHHHHHHHHHHHHHHHHHHHHHHHHHHHHHHHHHHHHHHHHHHHHHHHHHHHHHHHHHHHHH

    MODES         EIGV          FREQUENCIES     IRREP  IR   INTENS    RAMAN
             (HARTREE**2)   (CM**-1)     (THZ)             (KM/MOL)
    1-   3   -0.6633E-22      0.0000    0.0000  (F1u)   A (     0.00)   I
    4-   6    0.4742E-05    477.9545   14.3287  (F1u)   A (  1259.13)   I
    7-   9    0.6786E-05    571.7244   17.1399  (F2g)   I (     0.00)   A

 <RAMAN><RAMAN><RAMAN><RAMAN><RAMAN><RAMAN><RAMAN><RAMAN><RAMAN><RAMAN><RAMAN>
 <RAMAN><RAMAN><RAMAN><RAMAN><RAMAN><RAMAN><RAMAN><RAMAN><RAMAN><RAMAN><RAMAN>

 RAMAN INTENSITIES UNDER PLACZECK APPROXIMATION ARE COMPUTED AS:

  DIRECTIONAL (SINGLE CRYSTAL) :

     I_ij(n)= VOLUME*X(n,i,j)**2

  ISOTROPIC (POLYCRYSTALLINE POWDERS, GASES) :

     G_0(n) = 1/3*(SUM_i X(n,i,i))**2
     G_1(n) = 1/2*SUM_i,j (X(n,i,j)+X(n,j,i))**2
     G_2(n) = 1/3*SUM_i,j (X(n,i,i)-X(n,j,j))**2

     I_par(n)  = VOLUME*( 15*G_0(n) + 6*(G_1(n) + G_2(n)) )
     I_perp(n) = VOLUME*9/2*( G_1(n) + G_2(n) )
     I_tot(n)  = I_par(n) + I_perp(n)

  WHERE X(n,i,j) IS THE i,j-th COMPONENT OF THE RAMAN TENSOR
  IN THE BASIS OF NORMAL MODE n

  ALL VALUES ARE NORMALIZED TO THE MOST INTENSE PEAK


  INTENSITIES HAVE BEEN CALCULATED AT 
  TEMPERATURE                  :    298.0 K
  FREQUENCY OF INCOMING LASER  :    514.0 NM


 REFERENCES TO BE QUOTED FOR RAMAN INTENSITIES:

 L.MASCHIO, B.KIRTMAN, M.RERAT, R.ORLANDO and R.DOVESI, JCP 139, 164101 (2013)
 L.MASCHIO, B.KIRTMAN, M.RERAT, R.ORLANDO and R.DOVESI, JCP 139, 164102 (2013)

  --
  POLYCRYSTALLINE ISOTROPIC INTENSITIES (ARBITRARY UNITS)

    MODES    FREQUENCIES           I_tot     I_par    I_perp
  ----------------------------------------------------------------
    7-   9      571.7244 (F2g)   1000.00    571.43    428.57

  --
  SINGLE CRYSTAL DIRECTIONAL INTENSITIES (ARBITRARY UNITS)

    MODES    FREQUENCIES          I_xx    I_xy    I_xz    I_yy    I_yz    I_zz
  ----------------------------------------------------------------------------
    7-   9      571.7244 (F2g)    0.00 1000.00 1000.00    0.00 1000.00    0.00

 <RAMAN><RAMAN><RAMAN><RAMAN><RAMAN><RAMAN><RAMAN><RAMAN><RAMAN><RAMAN><RAMAN>
 <RAMAN><RAMAN><RAMAN><RAMAN><RAMAN><RAMAN><RAMAN><RAMAN><RAMAN><RAMAN><RAMAN>


 NORMAL MODES NORMALIZED TO CLASSICAL AMPLITUDES (IN BOHR)

 FREQ(CM**-1)      0.00      0.00      0.00    477.95    477.95    477.95

 AT.   1 LI X    -0.1825    0.0000    0.0000   -0.0978    0.0000    0.0000
            Y     0.0000   -0.1825    0.0000    0.0000   -0.0978    0.0000
            Z     0.0000    0.0000   -0.1825    0.0000    0.0000   -0.0978
 AT.   2 LI X    -0.1825    0.0000    0.0000   -0.0978    0.0000    0.0000
            Y     0.0000   -0.1825    0.0000    0.0000   -0.0978    0.0000
            Z     0.0000    0.0000   -0.1825    0.0000    0.0000   -0.0978
 AT.   3 O  X    -0.1825    0.0000    0.0000    0.0858    0.0000    0.0000
            Y     0.0000   -0.1825    0.0000    0.0000    0.0858    0.0000
            Z     0.0000    0.0000   -0.1825    0.0000    0.0000    0.0858

 FREQ(CM**-1)    571.72    571.72    571.72

 AT.   1 LI X     0.1225    0.0000    0.0000
            Y     0.0000    0.1225    0.0000
            Z     0.0000    0.0000    0.1225
 AT.   2 LI X    -0.1225    0.0000    0.0000
            Y     0.0000   -0.1225    0.0000
            Z     0.0000    0.0000   -0.1225
 AT.   3 O  X     0.0000    0.0000    0.0000
            Y     0.0000    0.0000    0.0000
            Z     0.0000    0.0000    0.0000

 *******************************************************************************

 VIBRATIONAL TEMPERATURES (K) [MODE NUMBER;IRREP]

 TO MODES
   687.7 [   4;F1u]   687.7 [   5;F1u]   687.7 [   6;F1u]   822.6 [   7;F2g]
   822.6 [   8;F2g]   822.6 [   9;F2g]

 *******************************************************************************

 HARMONIC VIBRATIONAL CONTRIBUTIONS TO THERMODYNAMIC FUNCTIONS AT GIVEN
 TEMPERATURE AND PRESSURE:

 (EL = ELECTRONIC ENERGY
  E0 = ZERO-POINT ENERGY
  ET = THERMAL CONTRIBUTION TO THE VIBRATIONAL ENERGY
  PV = PRESSURE * VOLUME
  TS = TEMPERATURE * ENTROPY)

                          AU/CELL             EV/CELL                 KJ/MOL
 EL            :     -90.361094817562   -2458.850395524439     -237243.02100990
 E0            :       0.007174033542       0.195215377238          18.83542241


 *******************************************************************************

 THERMODYNAMIC FUNCTIONS WITH VIBRATIONAL CONTRIBUTIONS

 AT (T =  298.15 K, P =   0.10132500E+00 MPA):

                          AU/CELL             EV/CELL                 KJ/MOL
 ET            :       0.001251422543       0.034052938627           3.28560942
 PV            :       0.000000568743       0.000015476273           0.00149323
 TS            :       0.001734049630       0.047185889318           4.55274666
 ET+PV-TS      :      -0.000482058344      -0.013117474418          -1.26564400
 EL+E0+ET+PV-TS:     -90.354402842364   -2458.668297621619     -237225.45123150

 OTHER THERMODYNAMIC FUNCTIONS:

                      mHARTREE/(CELL*K)     mEV/(CELL*K)              J/(MOL*K)
 ENTROPY       :       0.005816030958       0.158262248258          15.26998713
 HEAT CAPACITY :       0.011432659561       0.311098482608          30.01644345

 *******************************************************************************
 TTTTTTTTTTTTTTTTTTTTTTTTTTTTTT END         TELAPSE     3882.87 TCPU     3856.82
 EEEEEEEEEE TERMINATION  DATE 25 07 2023 TIME 18:10:01.3
