         256 PROCESSORS WORKING

         
 *******************************************************************************
 *                                                                             *
 *                               CRYSTAL23                                     *
 *                      public : 1.0.1 - October 2022                          *
 *                       HTTP://WWW.CRYSTAL.UNITO.IT                           *
 *                                                                             *
 *                              MAIN AUTHORS                                   *
 *                                                                             *
 *  R. DOVESI(1,11), V.R. SAUNDERS(2), C. ROETTI(1,11), R. ORLANDO(1,11),      *
 *  C.M. ZICOVICH-WILSON(1,3), F. PASCALE(4), B. CIVALLERI(1,11),              *
 *  K. DOLL(5), N.M. HARRISON(6), I.J. BUSH(7), Ph. D'ARCO(8),                 *
 *  M. LLUNELL(9), M. CAUSA'(10), Y. NOEL(8), L. MASCHIO(1,11), A. ERBA(1,11)  *
 *  M. RE'RAT(14), S. CASASSA(1,11), B.G. SEARLE(2), J.K. DESMARAIS(1)         *
 *                                                                             *
 *        CONTRIBUTIONS TO THE CODE HAVE ALSO BEEN GIVEN BY                    *
 *                                                                             *
 *  M. FERRABONE(1,11), M. DE LA PIERRE(1,11), M. FERRERO(1,11),               *
 *  J. BAIMA(1,11), E. ALBANESE(1,11), M.F. PEINTINGER(12), R. BAST(13),       *
 *  B. KIRTMAN(15), V. LACIVITA(1,11), R. DEMICHELIS(1,16)                     *
 *  G. BRANDEBURG(17), S. SALUSTRO(1,11), G. SANSONE(1,11)                     *
 *  M.T. RUGGIERO(18), L.E. DAGA(1), L. DONA'(1), A. COSSARD(1)                *
 *                                                                             *
 * (1) THEORETICAL CHEMISTRY GROUP - UNIVERSITA' DI TORINO - TORINO (ITALY)    *
 * (2) SCIENTIFIC COMPUTING DEPARTMENT - STFC DARESBURY (UK)                   *
 * (3) UNIVERSIDAD AUTONOMA DEL ESTADO DE MORELOS - CUERNAVACA (MEXICO)        *
 * (4) UNIVERSITE' DE LORRAINE - NANCY (FRANCE)                                *
 * (5) UNIVERSITAET STUTTGART- STUTTGART (GERMANY)                             *
 * (6) IMPERIAL COLLEGE - LONDON (UK)                                          *
 * (7) SCIENTIFIC COMPUTING DEPARTMENT - STFC RAL (UK)                         *
 * (8) UPMC - SORBONNE UNIVERSITES - PARIS (FRANCE)                            *
 * (9) UNIVERSIDAD DE BARCELONA - BARCELONA (SPAIN)                            *
 *(10) UNIVERSITA' DI NAPOLI "FEDERICO II" - NAPOLI (ITALY)                    *
 *(11) NIS - NANOSTRUCTURED INTERFACES AND SURFACES - TORINO (ITALY)           *
 *(12) MPI FUER CHEMISCHE ENERGIEKONVERSION - MUELHEIM AN DER RUHR (GERMANY)   *
 *(13) UNIVERSITY OF TROMSO - TROMSO (NORWAY)                                  *
 *(14) UNIVERSITE' DE PAU ET DES PAYS DE L'ADOUR - PAU (FRANCE)                *
 *(15) UNIVERSITY OF CALIFORNIA SANTA BARBARA - SANTA BARBARA (USA)            *
 *(16) CURTIN UNIVERSITY - PERTH (AUSTRALIA)                                   *
 *(17) UNIVERSITY COLLEGE LONDON - LONDON (UK)                                 *
 *(18) UNIVERSITY OF VERMONT - BURLINGTON (USA)                                *
 *                                                                             *
 *******************************************************************************
 EEEEEEEEEE STARTING  DATE 05 09 2023 TIME 16:28:26.9
 ICSD_CollCode427612.cif                                                         

 CRYSTAL CALCULATION
 (INPUT ACCORDING TO THE INTERNATIONAL TABLES FOR X-RAY CRYSTALLOGRAPHY)
 CRYSTAL FAMILY                       :  ORTHORHOMBIC
 CRYSTAL CLASS  (GROTH - 1921)        :  ORTHORHOMBIC BIPYRAMIDAL             

 SPACE GROUP (CENTROSYMMETRIC)        :  P B C A         

 LATTICE PARAMETERS  (ANGSTROMS AND DEGREES) - CONVENTIONAL CELL
        A           B           C        ALPHA        BETA       GAMMA
     5.67310     7.27540     7.55720    90.00000    90.00000    90.00000


 NUMBER OF IRREDUCIBLE ATOMS IN THE CONVENTIONAL CELL:    2

 INPUT COORDINATES

 ATOM AT. N.              COORDINATES
   1  30     4.145000000000E-02  6.202100000000E-01  8.645400000000E-01
   2  33     6.382000000000E-01  7.268600000000E-02  3.991600000000E-01

 *******************************************************************************

 << INFORMATION >>: FROM NOW ON, ALL COORDINATES REFER TO THE PRIMITIVE CELL

 *******************************************************************************

 LATTICE PARAMETERS  (ANGSTROMS AND DEGREES) - PRIMITIVE CELL
       A          B          C        ALPHA      BETA     GAMMA        VOLUME
    5.67310    7.27540    7.55720    90.00000  90.00000  90.00000    311.916415

 COORDINATES OF THE EQUIVALENT ATOMS (FRACTIONAL UNITS)

 N. ATOM EQUIV AT. N.          X                  Y                  Z

   1   1   1   30 ZN    4.14500000000E-02 -3.79790000000E-01 -1.35460000000E-01
   2   1   2   30 ZN    4.58550000000E-01  3.79790000000E-01  3.64540000000E-01
   3   1   3   30 ZN   -4.58550000000E-01 -1.20210000000E-01  1.35460000000E-01
   4   1   4   30 ZN   -4.14500000000E-02  1.20210000000E-01 -3.64540000000E-01
   5   1   5   30 ZN   -4.14500000000E-02  3.79790000000E-01  1.35460000000E-01
   6   1   6   30 ZN   -4.58550000000E-01 -3.79790000000E-01 -3.64540000000E-01
   7   1   7   30 ZN    4.58550000000E-01  1.20210000000E-01 -1.35460000000E-01
   8   1   8   30 ZN    4.14500000000E-02 -1.20210000000E-01  3.64540000000E-01

   9   2   1   33 AS   -3.61800000000E-01  7.26860000000E-02  3.99160000000E-01
  10   2   2   33 AS   -1.38200000000E-01 -7.26860000000E-02 -1.00840000000E-01
  11   2   3   33 AS    1.38200000000E-01  4.27314000000E-01 -3.99160000000E-01
  12   2   4   33 AS    3.61800000000E-01 -4.27314000000E-01  1.00840000000E-01
  13   2   5   33 AS    3.61800000000E-01 -7.26860000000E-02 -3.99160000000E-01
  14   2   6   33 AS    1.38200000000E-01  7.26860000000E-02  1.00840000000E-01
  15   2   7   33 AS   -1.38200000000E-01 -4.27314000000E-01  3.99160000000E-01
  16   2   8   33 AS   -3.61800000000E-01  4.27314000000E-01 -1.00840000000E-01

 NUMBER OF SYMMETRY OPERATORS         :    8
 *******************************************************************************
 * GEOMETRY EDITING - INPUT COORDINATES ARE GIVEN IN ANGSTROM         
 *******************************************************************************

 GEOMETRY NOW FULLY CONSISTENT WITH THE GROUP

 FRQFRQFRQFRQFRQFRQFRQFRQFRQFRQFRQFRQFRQFRQFRQFRQFRQFRQFRQFRQFRQFRQFRQFRQFRQFRQ

                       FREQUENCY CALCULATION

 OPTIMIZATION PERFORMED BEFORE FREQUENCIES CALCULATION
 *******************************************************************************
 INFORMATION **** NEW DEFAULT **** FINALRUN 4 FOR GEOMETRY OPTIMIZATIONS
 INFORMATION **** NEW DEFAULT **** OPTGEOM OPTIMIZES ATOMIC COORDINATES ONLY
 INFORMATION **** NEW DEFAULT **** TOL. ON ATOMIC DISP TO REDEFINE REF. GEOMETRY: 0.8 Angs
 INFORMATION **** NEW DEFAULT **** N POINTS TO REDEFINE REF. GEOMETRY: N OF OPT DEGS OF FREEDOM
 INFORMATION **** NEW DEFAULT **** TOL. ON ENERGY TO REDEFINE REF. GEOMETRY: 10**-3*(5*N. ATOMS)
 INFORMATION **** FULLOPTG **** FULL OPTIMIZATION (ATOMS AND CELL PARAMETERS)

 IMPORTANT INFORMATION:
 THE COORDINATE SYSTEM ADOPTED IN THE OPTIMIZATION IS NOT IN
 GENERAL HOMOGENEOUS UNITS. FOR THIS REASON THE GRADIENT AND 
 HESSIAN MATRIX IN TERMS OF THIS SYSTEM ARE GIVEN WITHOUT
 UNITS. FOR MORE DETAILS SEE THE MANUAL.

 *******************************************************************************
 COMBINED CELL/ATOM OPTIMIZATION CONTROL

 INITIAL TRUST RADIUS         0.50000 MAXIMUM TRUST RADIUS               0.50000
 MAXIMUM GRADIENT COMPONENT   0.00005 MAXIMUM DISPLACEMENT COMPONENT     0.00018
 R.M.S. OF GRADIENT COMPONENT 0.00003 R.M.S. OF DISPLACEMENT COMPONENTS  0.00012
 THRESHOLD ON ENERGY CHANGE 0.100E-06 EXTRAPOLATING POLYNOMIAL ORDER           2
 MAXIMUM ALLOWED NUMBER OF STEPS   -1 SORTING OF ENERGY POINTS:               NO
 ANALYTICAL  GRADIENT                 HESSIAN UPDATING                      BFGS
 STEP SIZE NUMERICAL GRADIENT 0.00100
 INITIAL HESSIAN MATRIX: SCHLEGEL MODEL 2
 *******************************************************************************

 INFORMATION **** INPFREQ **** IR INTENSITIES EVALUATED THROUGH CPHF APPROACH
 INFORMATION **** INPFREQ **** NEW DEFAULT - IMPOSING ECKART CONDITIONS TO THE HESSIAN

 GCALCO - MAX INDICES DIRECT LATTICE VECTOR    17    14    13
 NO.OF VECTORS CREATED 6999 STARS 1052 RMAX   152.27537 BOHR

 GEOMETRY FOR WAVE FUNCTION - DIMENSIONALITY OF THE SYSTEM    3
 (NON PERIODIC DIRECTION: LATTICE PARAMETER FORMALLY SET TO 500)
 *******************************************************************************
 LATTICE PARAMETERS (ANGSTROMS AND DEGREES) - BOHR = 0.5291772083 ANGSTROM
 PRIMITIVE CELL - CENTRING CODE 1/0 VOLUME=   311.916415 - DENSITY  5.914 g/cm^3
         A              B              C           ALPHA      BETA       GAMMA 
     5.67310000     7.27540000     7.55720000    90.000000  90.000000  90.000000
 *******************************************************************************
 ATOMS IN THE ASYMMETRIC UNIT    2 - ATOMS IN THE UNIT CELL:   16
     ATOM                 X/A                 Y/B                 Z/C    
 *******************************************************************************
      1 T  30 ZN    4.145000000000E-02 -3.797900000000E-01 -1.354600000000E-01
      2 F  30 ZN    4.585500000000E-01  3.797900000000E-01  3.645400000000E-01
      3 F  30 ZN   -4.585500000000E-01 -1.202100000000E-01  1.354600000000E-01
      4 F  30 ZN   -4.145000000000E-02  1.202100000000E-01 -3.645400000000E-01
      5 F  30 ZN   -4.145000000000E-02  3.797900000000E-01  1.354600000000E-01
      6 F  30 ZN   -4.585500000000E-01 -3.797900000000E-01 -3.645400000000E-01
      7 F  30 ZN    4.585500000000E-01  1.202100000000E-01 -1.354600000000E-01
      8 F  30 ZN    4.145000000000E-02 -1.202100000000E-01  3.645400000000E-01
      9 T  33 AS   -3.618000000000E-01  7.268600000000E-02  3.991600000000E-01
     10 F  33 AS   -1.382000000000E-01 -7.268600000000E-02 -1.008400000000E-01
     11 F  33 AS    1.382000000000E-01  4.273140000000E-01 -3.991600000000E-01
     12 F  33 AS    3.618000000000E-01 -4.273140000000E-01  1.008400000000E-01
     13 F  33 AS    3.618000000000E-01 -7.268600000000E-02 -3.991600000000E-01
     14 F  33 AS    1.382000000000E-01  7.268600000000E-02  1.008400000000E-01
     15 F  33 AS   -1.382000000000E-01 -4.273140000000E-01  3.991600000000E-01
     16 F  33 AS   -3.618000000000E-01  4.273140000000E-01 -1.008400000000E-01

 T = ATOM BELONGING TO THE ASYMMETRIC UNIT

 ****    8 SYMMOPS - TRANSLATORS IN FRACTIONAL UNITS
 **** MATRICES AND TRANSLATORS IN THE CRYSTALLOGRAPHIC REFERENCE FRAME
   V INV                    ROTATION MATRICES                   TRANSLATORS
   1   1  1.00  0.00  0.00  0.00  1.00  0.00  0.00  0.00  1.00  0.00  0.00  0.00
   2   2 -1.00  0.00  0.00  0.00 -1.00  0.00  0.00  0.00  1.00  0.50  0.00  0.50
   3   3  1.00  0.00  0.00  0.00 -1.00  0.00  0.00  0.00 -1.00  0.50  0.50  0.00
   4   4 -1.00  0.00  0.00  0.00  1.00  0.00  0.00  0.00 -1.00  0.00  0.50  0.50
   5   5 -1.00  0.00  0.00  0.00 -1.00  0.00  0.00  0.00 -1.00  0.00  0.00  0.00
   6   6  1.00  0.00  0.00  0.00  1.00  0.00  0.00  0.00 -1.00  0.50  0.00  0.50
   7   7 -1.00  0.00  0.00  0.00  1.00  0.00  0.00  0.00  1.00  0.50  0.50  0.00
   8   8  1.00  0.00  0.00  0.00 -1.00  0.00  0.00  0.00  1.00  0.00  0.50  0.50

 DIRECT LATTICE VECTORS CARTESIAN COMPONENTS (ANGSTROM)
          X                    Y                    Z
   0.567310000000E+01   0.000000000000E+00   0.000000000000E+00
   0.000000000000E+00   0.727540000000E+01   0.000000000000E+00
   0.000000000000E+00   0.000000000000E+00   0.755720000000E+01


 CARTESIAN COORDINATES - PRIMITIVE CELL
 *******************************************************************************
 *      ATOM          X(ANGSTROM)         Y(ANGSTROM)         Z(ANGSTROM)
 *******************************************************************************
    1    30 ZN    2.351499950000E-01 -2.763124166000E+00 -1.023698312000E+00
    2    30 ZN    2.601400005000E+00  2.763124166000E+00  2.754901688000E+00
    3    30 ZN   -2.601400005000E+00 -8.745758340000E-01  1.023698312000E+00
    4    30 ZN   -2.351499950000E-01  8.745758340000E-01 -2.754901688000E+00
    5    30 ZN   -2.351499950000E-01  2.763124166000E+00  1.023698312000E+00
    6    30 ZN   -2.601400005000E+00 -2.763124166000E+00 -2.754901688000E+00
    7    30 ZN    2.601400005000E+00  8.745758340000E-01 -1.023698312000E+00
    8    30 ZN    2.351499950000E-01 -8.745758340000E-01  2.754901688000E+00
    9    33 AS   -2.052527580000E+00  5.288197244000E-01  3.016531952000E+00
   10    33 AS   -7.840224200000E-01 -5.288197244000E-01 -7.620680480000E-01
   11    33 AS    7.840224200000E-01  3.108880275600E+00 -3.016531952000E+00
   12    33 AS    2.052527580000E+00 -3.108880275600E+00  7.620680480000E-01
   13    33 AS    2.052527580000E+00 -5.288197244000E-01 -3.016531952000E+00
   14    33 AS    7.840224200000E-01  5.288197244000E-01  7.620680480000E-01
   15    33 AS   -7.840224200000E-01 -3.108880275600E+00  3.016531952000E+00
   16    33 AS   -2.052527580000E+00  3.108880275600E+00 -7.620680480000E-01

 *******************************************************************************
 LOCAL ATOMIC FUNCTIONS BASIS SET
 *******************************************************************************
   ATOM   X(AU)   Y(AU)   Z(AU)  N. TYPE  EXPONENT  S COEF   P COEF   D/F/G COEF
 *******************************************************************************
   1 ZN   0.444  -5.222  -1.935
                                  1 S  
                                         4.059E+05 2.244E-04 0.000E+00 0.000E+00
                                         6.085E+04 1.740E-03 0.000E+00 0.000E+00
                                         1.385E+04 9.051E-03 0.000E+00 0.000E+00
                                         3.920E+03 3.682E-02 0.000E+00 0.000E+00
                                         1.276E+03 1.200E-01 0.000E+00 0.000E+00
                                         4.587E+02 2.858E-01 0.000E+00 0.000E+00
                                         1.783E+02 4.109E-01 0.000E+00 0.000E+00
                                         7.061E+01 2.182E-01 0.000E+00 0.000E+00
                                  2 S  
                                         4.439E+02-2.493E-02 0.000E+00 0.000E+00
                                         1.376E+02-1.182E-01 0.000E+00 0.000E+00
                                         2.227E+01 5.537E-01 0.000E+00 0.000E+00
                                         9.522E+00 5.263E-01 0.000E+00 0.000E+00
                                  3 S  
                                         1.487E+01-2.293E-01 0.000E+00 0.000E+00
                                         2.465E+00 7.114E-01 0.000E+00 0.000E+00
                                  4 S  
                                         1.011E+00 1.000E+00 0.000E+00 0.000E+00
                                  5 S  
                                         3.230E-01 1.000E+00 0.000E+00 0.000E+00
                                  6 S  
                                         1.517E-01 1.000E+00 0.000E+00 0.000E+00
                           7-     9 P  
                                         2.205E+03 0.000E+00 2.336E-03 0.000E+00
                                         5.224E+02 0.000E+00 1.903E-02 0.000E+00
                                         1.677E+02 0.000E+00 8.996E-02 0.000E+00
                                         6.267E+01 0.000E+00 2.611E-01 0.000E+00
                                         2.511E+01 0.000E+00 4.235E-01 0.000E+00
                                         1.023E+01 0.000E+00 2.462E-01 0.000E+00
                          10-    12 P  
                                         4.071E+01 0.000E+00-3.003E-02 0.000E+00
                                         5.625E+00 0.000E+00 5.558E-01 0.000E+00
                                         2.228E+00 0.000E+00 9.558E-01 0.000E+00
                          13-    15 P  
                                         1.160E+00 0.000E+00 1.000E+00 0.000E+00
                          16-    18 P  
                                         2.625E-01 0.000E+00 1.000E+00 0.000E+00
                          19-    23 D  
                                         8.855E+01 0.000E+00 0.000E+00 1.273E-02
                                         2.572E+01 0.000E+00 0.000E+00 7.939E-02
                                         9.128E+00 0.000E+00 0.000E+00 2.449E-01
                                         3.431E+00 0.000E+00 0.000E+00 4.039E-01
                          24-    28 D  
                                         1.186E+00 0.000E+00 0.000E+00 1.000E+00
                          29-    33 D  
                                         3.309E-01 0.000E+00 0.000E+00 1.000E+00
                          34-    40 F  
                                         2.614E+00 0.000E+00 0.000E+00 1.000E+00
   2 ZN   4.916   5.222   5.206
   3 ZN  -4.916  -1.653   1.935
   4 ZN  -0.444   1.653  -5.206
   5 ZN  -0.444   5.222   1.935
   6 ZN  -4.916  -5.222  -5.206
   7 ZN   4.916   1.653  -1.935
   8 ZN   0.444  -1.653   5.206
   9 AS  -3.879   0.999   5.700
                                321 S  
                                         4.980E+05 2.274E-04 0.000E+00 0.000E+00
                                         7.466E+04 1.763E-03 0.000E+00 0.000E+00
                                         1.699E+04 9.173E-03 0.000E+00 0.000E+00
                                         4.810E+03 3.734E-02 0.000E+00 0.000E+00
                                         1.566E+03 1.220E-01 0.000E+00 0.000E+00
                                         5.632E+02 2.914E-01 0.000E+00 0.000E+00
                                         2.191E+02 4.233E-01 0.000E+00 0.000E+00
                                         8.687E+01 2.292E-01 0.000E+00 0.000E+00
                                322 S  
                                         5.382E+02-2.525E-02 0.000E+00 0.000E+00
                                         1.671E+02-1.192E-01 0.000E+00 0.000E+00
                                         2.761E+01 5.463E-01 0.000E+00 0.000E+00
                                         1.195E+01 5.300E-01 0.000E+00 0.000E+00
                                323 S  
                                         1.854E+01-2.348E-01 0.000E+00 0.000E+00
                                         3.202E+00 6.917E-01 0.000E+00 0.000E+00
                                324 S  
                                         1.788E+00 1.000E+00 0.000E+00 0.000E+00
                                325 S  
                                         5.961E-01 1.000E+00 0.000E+00 0.000E+00
                                326 S  
                                         2.163E-01 1.000E+00 0.000E+00 0.000E+00
                         327-   329 P  
                                         2.679E+03 0.000E+00 2.332E-03 0.000E+00
                                         6.346E+02 0.000E+00 1.904E-02 0.000E+00
                                         2.039E+02 0.000E+00 9.023E-02 0.000E+00
                                         7.632E+01 0.000E+00 2.617E-01 0.000E+00
                                         3.066E+01 0.000E+00 4.186E-01 0.000E+00
                                         1.251E+01 0.000E+00 2.345E-01 0.000E+00
                         330-   332 P  
                                         4.926E+01 0.000E+00-2.124E-02 0.000E+00
                                         7.727E+00 0.000E+00 3.047E-01 0.000E+00
                                         3.541E+00 0.000E+00 5.289E-01 0.000E+00
                                         1.699E+00 0.000E+00 3.727E-01 0.000E+00
                         333-   335 P  
                                         8.685E-01 0.000E+00 1.000E+00 0.000E+00
                         336-   338 P  
                                         4.173E-01 0.000E+00 1.000E+00 0.000E+00
                         339-   341 P  
                                         1.470E-01 0.000E+00 1.000E+00 0.000E+00
                         342-   346 D  
                                         1.353E+02 0.000E+00 0.000E+00 9.929E-03
                                         3.986E+01 0.000E+00 0.000E+00 6.657E-02
                                         1.445E+01 0.000E+00 0.000E+00 2.228E-01
                                         5.643E+00 0.000E+00 0.000E+00 4.031E-01
                                         2.167E+00 0.000E+00 0.000E+00 4.167E-01
                         347-   351 D  
                                         1.898E+00 0.000E+00 0.000E+00 1.000E+00
                         352-   356 D  
                                         9.488E-01 0.000E+00 0.000E+00 1.000E+00
                         357-   361 D  
                                         4.744E-01 0.000E+00 0.000E+00 1.000E+00
  10 AS  -1.482  -0.999  -1.440
  11 AS   1.482   5.875  -5.700
  12 AS   3.879  -5.875   1.440
  13 AS   3.879  -0.999  -5.700
  14 AS   1.482   0.999   1.440
  15 AS  -1.482  -5.875   5.700
  16 AS  -3.879   5.875  -1.440
 INFORMATION **** SET_MPP **** PCRYSTAL CALCULATION
 INFORMATION **** READM2 **** NEW DEFAULT: FOCK/KS MATRIX MIXING SET TO 30 %
 INFORMATION **** READM2 **** NEW DEFAULT: FULL DIRECT SCF MODE
 INFORMATION **** READM2 **** NEW DEFAULT: COULOMB BIPOLAR BUFFER SET TO 32 Mb
 INFORMATION **** READM2 **** NEW DEFAULT: EXCHANGE BIPOLAR BUFFER SET TO 32 Mb

 *******************************************************************************
 NEW DEFAULT: DFT INTEGRATION GRID INCREASED TO XLGRID
 NEW DEFAULT: DIIS ACCELERATOR ACTIVE
 USE KEYWORD NODIIS TO TURN IT OFF
 *******************************************************************************

 INFORMATION **** RDDFTP **** MAX N. OF POINTS ALLOWED IN A BATCH FOR NUMERICAL INTEGRATION         200
 INFORMATION **** TOLINTEG **** COULOMB AND EXCHANGE SERIES TOLERANCES MODIFIED
 INFORMATION **** TOLDEE **** SCF TOL ON TOTAL ENERGY SET TO          11
 INFORMATION **** EXCHSIZE **** EXCHANGE BIPOLAR BUFFER SIZE SET TO    12012489
 INFORMATION **** MAXCYCLE **** MAX NUMBER OF SCF CYCLES SET TO         150
 *******************************************************************************
 N. OF ATOMS PER CELL        16  COULOMB OVERLAP TOL         (T1) 10**   -7
 NUMBER OF SHELLS           232  COULOMB PENETRATION TOL     (T2) 10**   -7
 NUMBER OF AO               648  EXCHANGE OVERLAP TOL        (T3) 10**   -7
 N. OF ELECTRONS PER CELL   504  EXCHANGE PSEUDO OVP (F(G))  (T4) 10**   -9
 CORE ELECTRONS PER CELL    368  EXCHANGE PSEUDO OVP (P(G))  (T5) 10**  -30
 N. OF SYMMETRY OPERATORS     8  POLE ORDER IN MONO ZONE                  4
 *******************************************************************************
 TYPE OF CALCULATION :  RESTRICTED CLOSED SHELL
 KOHN-SHAM HAMILTONIAN

 (EXCHANGE)[CORRELATION] FUNCTIONAL:(PERDEW-BURKE-ERNZERHOF)[PERDEW-BURKE-ERNZERHOF]


 HYBRID EXCHANGE - PERCENTAGE OF FOCK EXCHANGE    25.0000

 CAPPA:IS1  8;IS2  8;IS3  8; K PTS MONK NET 125; SYMMOPS:K SPACE   8;G SPACE   8

 *******************************************************************************
 MAX NUMBER OF SCF CYCLES     150  CONVERGENCE ON DELTAP        10**-21
 WEIGHT OF F(I) IN F(I+1)      30% CONVERGENCE ON ENERGY        10**-11
 SHRINK. FACT.(MONKH.)    8  8  8  NUMBER OF K POINTS IN THE IBZ    125
 SHRINKING FACTOR(GILAT NET)    8  NUMBER OF K POINTS(GILAT NET)    125
 *******************************************************************************
 *** K POINTS COORDINATES (OBLIQUE COORDINATES IN UNITS OF IS =  8)
   1-R(  0  0  0)   2-C(  1  0  0)   3-C(  2  0  0)   4-C(  3  0  0)
   5-R(  4  0  0)   6-C(  0  1  0)   7-C(  1  1  0)   8-C(  2  1  0)
   9-C(  3  1  0)  10-C(  4  1  0)  11-C(  0  2  0)  12-C(  1  2  0)
  13-C(  2  2  0)  14-C(  3  2  0)  15-C(  4  2  0)  16-C(  0  3  0)
  17-C(  1  3  0)  18-C(  2  3  0)  19-C(  3  3  0)  20-C(  4  3  0)
  21-R(  0  4  0)  22-C(  1  4  0)  23-C(  2  4  0)  24-C(  3  4  0)
  25-R(  4  4  0)  26-C(  0  0  1)  27-C(  1  0  1)  28-C(  2  0  1)
  29-C(  3  0  1)  30-C(  4  0  1)  31-C(  0  1  1)  32-C(  1  1  1)
  33-C(  2  1  1)  34-C(  3  1  1)  35-C(  4  1  1)  36-C(  0  2  1)
  37-C(  1  2  1)  38-C(  2  2  1)  39-C(  3  2  1)  40-C(  4  2  1)
  41-C(  0  3  1)  42-C(  1  3  1)  43-C(  2  3  1)  44-C(  3  3  1)
  45-C(  4  3  1)  46-C(  0  4  1)  47-C(  1  4  1)  48-C(  2  4  1)
  49-C(  3  4  1)  50-C(  4  4  1)  51-C(  0  0  2)  52-C(  1  0  2)
  53-C(  2  0  2)  54-C(  3  0  2)  55-C(  4  0  2)  56-C(  0  1  2)
  57-C(  1  1  2)  58-C(  2  1  2)  59-C(  3  1  2)  60-C(  4  1  2)
  61-C(  0  2  2)  62-C(  1  2  2)  63-C(  2  2  2)  64-C(  3  2  2)
  65-C(  4  2  2)  66-C(  0  3  2)  67-C(  1  3  2)  68-C(  2  3  2)
  69-C(  3  3  2)  70-C(  4  3  2)  71-C(  0  4  2)  72-C(  1  4  2)
  73-C(  2  4  2)  74-C(  3  4  2)  75-C(  4  4  2)  76-C(  0  0  3)
  77-C(  1  0  3)  78-C(  2  0  3)  79-C(  3  0  3)  80-C(  4  0  3)
  81-C(  0  1  3)  82-C(  1  1  3)  83-C(  2  1  3)  84-C(  3  1  3)
  85-C(  4  1  3)  86-C(  0  2  3)  87-C(  1  2  3)  88-C(  2  2  3)
  89-C(  3  2  3)  90-C(  4  2  3)  91-C(  0  3  3)  92-C(  1  3  3)
  93-C(  2  3  3)  94-C(  3  3  3)  95-C(  4  3  3)  96-C(  0  4  3)
  97-C(  1  4  3)  98-C(  2  4  3)  99-C(  3  4  3) 100-C(  4  4  3)
 101-R(  0  0  4) 102-C(  1  0  4) 103-C(  2  0  4) 104-C(  3  0  4)
 105-R(  4  0  4) 106-C(  0  1  4) 107-C(  1  1  4) 108-C(  2  1  4)
 109-C(  3  1  4) 110-C(  4  1  4) 111-C(  0  2  4) 112-C(  1  2  4)
 113-C(  2  2  4) 114-C(  3  2  4) 115-C(  4  2  4) 116-C(  0  3  4)
 117-C(  1  3  4) 118-C(  2  3  4) 119-C(  3  3  4) 120-C(  4  3  4)
 121-R(  0  4  4) 122-C(  1  4  4) 123-C(  2  4  4) 124-C(  3  4  4)
 125-R(  4  4  4)

 DIRECT LATTICE VECTORS COMPON. (A.U.)     RECIP. LATTICE VECTORS COMPON. (A.U.) 
        X            Y            Z              X            Y            Z
   10.7206053    0.0000000    0.0000000      0.5860849    0.0000000    0.0000000
    0.0000000   13.7485135    0.0000000      0.0000000    0.4570083    0.0000000
    0.0000000    0.0000000   14.2810383      0.0000000    0.0000000    0.4399670

 DISK SPACE FOR EIGENVECTORS (FTN 10)   101616768 REALS

 SYMMETRY ADAPTION OF THE BLOCH FUNCTIONS ENABLED
 TTTTTTTTTTTTTTTTTTTTTTTTTTTTTT gordsh1     TELAPSE        4.58 TCPU        2.29

 MATRIX SIZE: P(G) 2662072, F(G)  213752, P(G) IRR  174270, F(G) IRR   27942
 MAX G-VECTOR INDEX FOR 1- AND 2-ELECTRON INTEGRALS 195

 TTTTTTTTTTTTTTTTTTTTTTTTTTTTTT INPUT       TELAPSE        4.59 TCPU        2.29

 NEIGHBORS OF THE NON-EQUIVALENT ATOMS

 N = NUMBER OF NEIGHBORS AT DISTANCE R
    ATOM  N     R/ANG      R/AU   NEIGHBORS (ATOM LABELS AND CELL INDICES)
   1 ZN   1     2.4697     4.6670   10 AS   0 0 0
   1 ZN   1     2.4984     4.7214   11 AS   0-1 0
   1 ZN   1     2.5713     4.8590   12 AS   0 0 0
   1 ZN   1     2.6966     5.0958   16 AS   0-1 0
   1 ZN   1     2.7336     5.1657    5 ZN   0-1 0
   1 ZN   2     3.3231     6.2798    6 ZN   0 0 0    6 ZN   1 0 0

   9 AS   1     2.4291     4.5903   13 AS  -1 0 1
   9 AS   1     2.4697     4.6670    2 ZN  -1 0 0
   9 AS   1     2.4984     4.7214    3 ZN   0 0 0
   9 AS   1     2.5713     4.8590    4 ZN   0 0 1
   9 AS   1     2.6966     5.0958    8 ZN   0 0 0
   9 AS   1     3.5023     6.6185    5 ZN   0 0 0


 SYMMETRY ALLOWED ELASTIC DISTORTION 1
  0.5773503  0.0000000  0.0000000
  0.0000000  0.5773503  0.0000000
  0.0000000  0.0000000  0.5773503

 SYMMETRY ALLOWED ELASTIC DISTORTION 2
  0.8164966  0.0000000  0.0000000
  0.0000000 -0.4082483  0.0000000
  0.0000000  0.0000000 -0.4082483

 SYMMETRY ALLOWED ELASTIC DISTORTION 3
  0.0000000  0.0000000  0.0000000
  0.0000000  0.7071068  0.0000000
  0.0000000  0.0000000 -0.7071068

 SYMMETRY ALLOWED INTERNAL DEGREE(S) OF FREEDOM:   6
 TTTTTTTTTTTTTTTTTTTTTTTTTTTTTT SYMM        TELAPSE        4.67 TCPU        2.38
 TTTTTTTTTTTTTTTTTTTTTTTTTTTTTT INT_SCREEN  TELAPSE        4.69 TCPU        2.39

 *******************************************************************************
 *                             OPTIMIZATION STARTS                             *
 *******************************************************************************
 RECLASIFICATION OF INDICES FOR INTEGRAL CALC ACCORDING TO DIFFERENT CRITERIA:
           FIXDELTE                  FIXDELTX              FIXDELTN
          0.10000000               0.80000000                 10
 *******************************************************************************

 *******************************************************************************
 COORDINATE AND CELL OPTIMIZATION - POINT    1

 DFT PARAMETERS

     ATOM       ELECTRONS   NET CHARGE   R(ANGSTROM)
   1  30  ZN     30.0000      0.0000     1.37000000
   9  33  AS     33.0000      0.0000     1.21000000

 SIZE OF GRID=      91298
 TTTTTTTTTTTTTTTTTTTTTTTTTTTTTT MAKE_GRID2  TELAPSE       11.29 TCPU        8.97
 BECKE WEIGHT FUNCTION
 RADSAFE =     2.00
 TOLERANCES - DENSITY:10**- 6; POTENTIAL:10**- 9; GRID WGT:10**-14

 RADIAL INTEGRATION  - INTERVALS (POINTS,UPPER LIMIT):            1( 99,  4.0*R)

 ANGULAR INTEGRATION - INTERVALS (ACCURACY LEVEL [N. POINTS] UPPER LIMIT):
  1(  6[ 146]   0.2)  2( 11[ 302]   0.5)  3( 14[ 590]   0.9)  4( 18[1454]   3.5)
  5( 14[ 590]9999.0)
 TTTTTTTTTTTTTTTTTTTTTTTTTTTTTT INT_CALC    TELAPSE       11.32 TCPU        8.99

 *******************************************************************************
 ICSD_CollCode427612.cif                                                         
 CRYSTAL - SCF - TYPE OF CALCULATION :  RESTRICTED CLOSED SHELL
 *******************************************************************************

 CAPPA:IS1  8;IS2  8;IS3  8; K PTS MONK NET 125; SYMMOPS:K SPACE   8;G SPACE   8

 TTTTTTTTTTTTTTTTTTTTTTTTTTTTTT SDIK        TELAPSE       11.42 TCPU        9.09

 AAAAAAAAAAAAAAAAAAAAAAAAAAAAAAAAAAAAAAAAAAAAAAAAAAAAAAAAAAAAAAAAAAAAAAAAAAAAAAA
         ATOMIC WAVEFUNCTION(S)


 NUCLEAR CHARGE 30.0  SYMMETRY SPECIES            S    P    D
 N. ELECTRONS   30.0  NUMBER OF PRIMITIVE GTOS   17   11    6
                      NUMBER OF CONTRACTED GTOS   6    4    3
                      NUMBER OF CLOSED SHELLS     4    2    1
                      OPEN SHELL OCCUPATION       0    0    0

  ZNUC  SCFIT    TOTAL HF ENERGY   KINETIC ENERGY   VIRIAL THEOREM             ACCURACY
  30.0    18    -1.777712574E+03  1.776653869E+03 -2.000595898E+00  2.8E-06

 NUCLEAR CHARGE 33.0  SYMMETRY SPECIES            S    P    D
 N. ELECTRONS   33.0  NUMBER OF PRIMITIVE GTOS   17   13    8
                      NUMBER OF CONTRACTED GTOS   6    5    4
                      NUMBER OF CLOSED SHELLS     4    2    1
                      OPEN SHELL OCCUPATION       0    3    0

  ZNUC  SCFIT    TOTAL HF ENERGY   KINETIC ENERGY   VIRIAL THEOREM             ACCURACY
  33.0    17    -2.234164428E+03  2.233930354E+03 -2.000104781E+00  4.0E-06

 AAAAAAAAAAAAAAAAAAAAAAAAAAAAAAAAAAAAAAAAAAAAAAAAAAAAAAAAAAAAAAAAAAAAAAAAAAAAAAA

 TTTTTTTTTTTTTTTTTTTTTTTTTTTTTT MOQGAD      TELAPSE       11.43 TCPU        9.10
 TTTTTTTTTTTTTTTTTTTTTTTTTTTTTT SHELLXN     TELAPSE       13.56 TCPU       11.22
 TTTTTTTTTTTTTTTTTTTTTTTTTTTTTT MONMO3      TELAPSE       13.58 TCPU       11.23
 NUMERICALLY INTEGRATED DENSITY    503.9999887345
 TTTTTTTTTTTTTTTTTTTTTTTTTTTTTT NUMDFT      TELAPSE       13.71 TCPU       11.37
 CYC   0 ETOT(AU) -3.212012964260E+04 DETOT -3.21E+04 tst  0.00E+00 PX  1.00E+00
 TTTTTTTTTTTTTTTTTTTTTTTTTTTTTT DIIS        TELAPSE       13.74 TCPU       11.39
 TTTTTTTTTTTTTTTTTTTTTTTTTTTTTT FDIK        TELAPSE       14.31 TCPU       11.96
 INSULATING STATE
 TOP OF VALENCE BANDS -    BAND    252; K    4; EIG -1.2110268E-01 AU
 TOP OF VALENCE BANDS -    BAND    252; K    1; EIG -1.4430283E-01 AU
 BOTTOM OF VIRTUAL BANDS - BAND    253; K   76; EIG -7.9087343E-02 AU
 INDIRECT ENERGY BAND GAP:   1.1433 eV
 BOTTOM OF VIRTUAL BANDS - BAND    253; K    1; EIG -5.4686365E-02 AU
 TTTTTTTTTTTTTTTTTTTTTTTTTTTTTT PDIG        TELAPSE       14.65 TCPU       12.30
 TTTTTTTTTTTTTTTTTTTTTTTTTTTTTT MOQGAD      TELAPSE       14.65 TCPU       12.30
 TTTTTTTTTTTTTTTTTTTTTTTTTTTTTT SHELLXN     TELAPSE       16.88 TCPU       14.52
 TTTTTTTTTTTTTTTTTTTTTTTTTTTTTT MONMO3      TELAPSE       16.90 TCPU       14.53
 NUMERICALLY INTEGRATED DENSITY    503.9999873755
 TTTTTTTTTTTTTTTTTTTTTTTTTTTTTT NUMDFT      TELAPSE       17.11 TCPU       14.74
 CYC   1 ETOT(AU) -3.211816080553E+04 DETOT  1.97E+00 tst  0.00E+00 PX  1.00E+00
 TTTTTTTTTTTTTTTTTTTTTTTTTTTTTT DIIS        TELAPSE       17.13 TCPU       14.77
 DIIS TEST: 0.14624E+01 AT SCF   CYCLE   1 - MIX   30 %
 TTTTTTTTTTTTTTTTTTTTTTTTTTTTTT FDIK        TELAPSE       17.70 TCPU       15.32
 INSULATING STATE
 TOP OF VALENCE BANDS -    BAND    252; K    5; EIG -1.5477103E-01 AU
 TOP OF VALENCE BANDS -    BAND    252; K    1; EIG -1.8356085E-01 AU
 BOTTOM OF VIRTUAL BANDS - BAND    253; K   76; EIG -9.4121404E-02 AU
 INDIRECT ENERGY BAND GAP:   1.6504 eV
 BOTTOM OF VIRTUAL BANDS - BAND    253; K    1; EIG -6.8380688E-02 AU
 TTTTTTTTTTTTTTTTTTTTTTTTTTTTTT PDIG        TELAPSE       18.04 TCPU       15.66
 TTTTTTTTTTTTTTTTTTTTTTTTTTTTTT MOQGAD      TELAPSE       18.04 TCPU       15.66
 TTTTTTTTTTTTTTTTTTTTTTTTTTTTTT SHELLXN     TELAPSE       20.26 TCPU       17.87
 TTTTTTTTTTTTTTTTTTTTTTTTTTTTTT MONMO3      TELAPSE       20.28 TCPU       17.89
 NUMERICALLY INTEGRATED DENSITY    503.9999877822
 TTTTTTTTTTTTTTTTTTTTTTTTTTTTTT NUMDFT      TELAPSE       20.49 TCPU       18.09
 CYC   2 ETOT(AU) -3.211815694660E+04 DETOT  3.86E-03 tst  1.38E-03 PX  8.19E-02
 TTTTTTTTTTTTTTTTTTTTTTTTTTTTTT DIIS        TELAPSE       20.51 TCPU       18.12
 DIIS TEST: 0.17963E+01 AT SCF   CYCLE   2 - DIIS ACTIVE - HISTORY:     2 CYCLES
 TTTTTTTTTTTTTTTTTTTTTTTTTTTTTT FDIK        TELAPSE       21.08 TCPU       18.68
 INSULATING STATE
 TOP OF VALENCE BANDS -    BAND    252; K    5; EIG -1.6422964E-01 AU
 TOP OF VALENCE BANDS -    BAND    252; K    1; EIG -1.9433134E-01 AU
 BOTTOM OF VIRTUAL BANDS - BAND    253; K   76; EIG -9.0704686E-02 AU
 INDIRECT ENERGY BAND GAP:   2.0007 eV
 BOTTOM OF VIRTUAL BANDS - BAND    253; K    1; EIG -6.6902318E-02 AU
 TTTTTTTTTTTTTTTTTTTTTTTTTTTTTT PDIG        TELAPSE       21.42 TCPU       19.02
 TTTTTTTTTTTTTTTTTTTTTTTTTTTTTT MOQGAD      TELAPSE       21.42 TCPU       19.02
 TTTTTTTTTTTTTTTTTTTTTTTTTTTTTT SHELLXN     TELAPSE       23.65 TCPU       21.23
 TTTTTTTTTTTTTTTTTTTTTTTTTTTTTT MONMO3      TELAPSE       23.66 TCPU       21.25
 NUMERICALLY INTEGRATED DENSITY    503.9999877225
 TTTTTTTTTTTTTTTTTTTTTTTTTTTTTT NUMDFT      TELAPSE       23.90 TCPU       21.48
 CYC   3 ETOT(AU) -3.211838602180E+04 DETOT -2.29E-01 tst  2.65E-04 PX  5.66E-02
 TTTTTTTTTTTTTTTTTTTTTTTTTTTTTT DIIS        TELAPSE       23.92 TCPU       21.51
 DIIS TEST: 0.10011E-01 AT SCF   CYCLE   3 - DIIS ACTIVE - HISTORY:     3 CYCLES
 TTTTTTTTTTTTTTTTTTTTTTTTTTTTTT FDIK        TELAPSE       24.49 TCPU       22.07
 INSULATING STATE
 TOP OF VALENCE BANDS -    BAND    252; K    5; EIG -1.6696867E-01 AU
 TOP OF VALENCE BANDS -    BAND    252; K    1; EIG -1.9637002E-01 AU
 BOTTOM OF VIRTUAL BANDS - BAND    253; K   76; EIG -9.0506128E-02 AU
 INDIRECT ENERGY BAND GAP:   2.0807 eV
 BOTTOM OF VIRTUAL BANDS - BAND    253; K    1; EIG -6.7478873E-02 AU
 TTTTTTTTTTTTTTTTTTTTTTTTTTTTTT PDIG        TELAPSE       24.83 TCPU       22.41
 TTTTTTTTTTTTTTTTTTTTTTTTTTTTTT MOQGAD      TELAPSE       24.83 TCPU       22.41
 TTTTTTTTTTTTTTTTTTTTTTTTTTTTTT SHELLXN     TELAPSE       27.06 TCPU       24.62
 TTTTTTTTTTTTTTTTTTTTTTTTTTTTTT MONMO3      TELAPSE       27.07 TCPU       24.63
 NUMERICALLY INTEGRATED DENSITY    503.9999877668
 TTTTTTTTTTTTTTTTTTTTTTTTTTTTTT NUMDFT      TELAPSE       27.28 TCPU       24.84
 CYC   4 ETOT(AU) -3.211838799054E+04 DETOT -1.97E-03 tst  2.65E-05 PX  2.15E-02
 TTTTTTTTTTTTTTTTTTTTTTTTTTTTTT DIIS        TELAPSE       27.30 TCPU       24.86
 DIIS TEST: 0.50754E-03 AT SCF   CYCLE   4 - DIIS ACTIVE - HISTORY:     4 CYCLES
 TTTTTTTTTTTTTTTTTTTTTTTTTTTTTT FDIK        TELAPSE       27.86 TCPU       25.42
 INSULATING STATE
 TOP OF VALENCE BANDS -    BAND    252; K    5; EIG -1.6770515E-01 AU
 TOP OF VALENCE BANDS -    BAND    252; K    1; EIG -1.9715020E-01 AU
 BOTTOM OF VIRTUAL BANDS - BAND    253; K   76; EIG -9.0047288E-02 AU
 INDIRECT ENERGY BAND GAP:   2.1132 eV
 BOTTOM OF VIRTUAL BANDS - BAND    253; K    1; EIG -6.7475780E-02 AU
 TTTTTTTTTTTTTTTTTTTTTTTTTTTTTT PDIG        TELAPSE       28.20 TCPU       25.75
 TTTTTTTTTTTTTTTTTTTTTTTTTTTTTT MOQGAD      TELAPSE       28.20 TCPU       25.76
 TTTTTTTTTTTTTTTTTTTTTTTTTTTTTT SHELLXN     TELAPSE       30.43 TCPU       27.96
 TTTTTTTTTTTTTTTTTTTTTTTTTTTTTT MONMO3      TELAPSE       30.44 TCPU       27.98
 NUMERICALLY INTEGRATED DENSITY    503.9999877896
 TTTTTTTTTTTTTTTTTTTTTTTTTTTTTT NUMDFT      TELAPSE       30.69 TCPU       28.23
 CYC   5 ETOT(AU) -3.211838807426E+04 DETOT -8.37E-05 tst  2.79E-06 PX  7.10E-03
 TTTTTTTTTTTTTTTTTTTTTTTTTTTTTT DIIS        TELAPSE       30.80 TCPU       28.34
 DIIS TEST: 0.72494E-04 AT SCF   CYCLE   5 - DIIS ACTIVE - HISTORY:     5 CYCLES
 TTTTTTTTTTTTTTTTTTTTTTTTTTTTTT FDIK        TELAPSE       31.37 TCPU       28.90
 INSULATING STATE
 TOP OF VALENCE BANDS -    BAND    252; K    5; EIG -1.6762595E-01 AU
 TOP OF VALENCE BANDS -    BAND    252; K    1; EIG -1.9714805E-01 AU
 BOTTOM OF VIRTUAL BANDS - BAND    253; K   76; EIG -8.9827838E-02 AU
 INDIRECT ENERGY BAND GAP:   2.1170 eV
 BOTTOM OF VIRTUAL BANDS - BAND    253; K    1; EIG -6.7304158E-02 AU
 TTTTTTTTTTTTTTTTTTTTTTTTTTTTTT PDIG        TELAPSE       31.71 TCPU       29.23
 TTTTTTTTTTTTTTTTTTTTTTTTTTTTTT MOQGAD      TELAPSE       31.71 TCPU       29.24
 TTTTTTTTTTTTTTTTTTTTTTTTTTTTTT SHELLXN     TELAPSE       33.93 TCPU       31.44
 TTTTTTTTTTTTTTTTTTTTTTTTTTTTTT MONMO3      TELAPSE       33.95 TCPU       31.46
 NUMERICALLY INTEGRATED DENSITY    503.9999877887
 TTTTTTTTTTTTTTTTTTTTTTTTTTTTTT NUMDFT      TELAPSE       34.07 TCPU       31.59
 CYC   6 ETOT(AU) -3.211838809829E+04 DETOT -2.40E-05 tst  1.45E-07 PX  9.68E-04
 TTTTTTTTTTTTTTTTTTTTTTTTTTTTTT DIIS        TELAPSE       34.16 TCPU       31.68
 DIIS TEST: 0.33895E-05 AT SCF   CYCLE   6 - DIIS ACTIVE - HISTORY:     6 CYCLES
 TTTTTTTTTTTTTTTTTTTTTTTTTTTTTT FDIK        TELAPSE       34.73 TCPU       32.23
 INSULATING STATE
 TOP OF VALENCE BANDS -    BAND    252; K    5; EIG -1.6776438E-01 AU
 TOP OF VALENCE BANDS -    BAND    252; K    1; EIG -1.9726177E-01 AU
 BOTTOM OF VIRTUAL BANDS - BAND    253; K   76; EIG -8.9893446E-02 AU
 INDIRECT ENERGY BAND GAP:   2.1190 eV
 BOTTOM OF VIRTUAL BANDS - BAND    253; K    1; EIG -6.7352718E-02 AU
 TTTTTTTTTTTTTTTTTTTTTTTTTTTTTT PDIG        TELAPSE       35.06 TCPU       32.57
 TTTTTTTTTTTTTTTTTTTTTTTTTTTTTT MOQGAD      TELAPSE       35.07 TCPU       32.57
 TTTTTTTTTTTTTTTTTTTTTTTTTTTTTT SHELLXN     TELAPSE       37.29 TCPU       34.78
 TTTTTTTTTTTTTTTTTTTTTTTTTTTTTT MONMO3      TELAPSE       37.31 TCPU       34.80
 NUMERICALLY INTEGRATED DENSITY    503.9999877903
 TTTTTTTTTTTTTTTTTTTTTTTTTTTTTT NUMDFT      TELAPSE       37.60 TCPU       35.08
 CYC   7 ETOT(AU) -3.211838809868E+04 DETOT -3.90E-07 tst  1.51E-08 PX  5.77E-04
 TTTTTTTTTTTTTTTTTTTTTTTTTTTTTT DIIS        TELAPSE       37.62 TCPU       35.11
 DIIS TEST: 0.58626E-07 AT SCF   CYCLE   7 - DIIS ACTIVE - HISTORY:     7 CYCLES
 TTTTTTTTTTTTTTTTTTTTTTTTTTTTTT FDIK        TELAPSE       38.19 TCPU       35.67
 INSULATING STATE
 TOP OF VALENCE BANDS -    BAND    252; K    5; EIG -1.6778852E-01 AU
 TOP OF VALENCE BANDS -    BAND    252; K    1; EIG -1.9728851E-01 AU
 BOTTOM OF VIRTUAL BANDS - BAND    253; K   76; EIG -8.9906909E-02 AU
 INDIRECT ENERGY BAND GAP:   2.1193 eV
 BOTTOM OF VIRTUAL BANDS - BAND    253; K    1; EIG -6.7370983E-02 AU
 TTTTTTTTTTTTTTTTTTTTTTTTTTTTTT PDIG        TELAPSE       38.53 TCPU       36.00
 TTTTTTTTTTTTTTTTTTTTTTTTTTTTTT MOQGAD      TELAPSE       38.53 TCPU       36.01
 TTTTTTTTTTTTTTTTTTTTTTTTTTTTTT SHELLXN     TELAPSE       40.75 TCPU       38.21
 TTTTTTTTTTTTTTTTTTTTTTTTTTTTTT MONMO3      TELAPSE       40.76 TCPU       38.23
 NUMERICALLY INTEGRATED DENSITY    503.9999877909
 TTTTTTTTTTTTTTTTTTTTTTTTTTTTTT NUMDFT      TELAPSE       40.97 TCPU       38.43
 CYC   8 ETOT(AU) -3.211838809900E+04 DETOT -3.23E-07 tst  1.13E-09 PX  9.21E-05
 TTTTTTTTTTTTTTTTTTTTTTTTTTTTTT DIIS        TELAPSE       40.99 TCPU       38.46
 DIIS TEST: 0.30002E-08 AT SCF   CYCLE   8 - DIIS ACTIVE - HISTORY:     8 CYCLES
 TTTTTTTTTTTTTTTTTTTTTTTTTTTTTT FDIK        TELAPSE       41.66 TCPU       39.11
 INSULATING STATE
 TOP OF VALENCE BANDS -    BAND    252; K    5; EIG -1.6778781E-01 AU
 TOP OF VALENCE BANDS -    BAND    252; K    1; EIG -1.9728796E-01 AU
 BOTTOM OF VIRTUAL BANDS - BAND    253; K   76; EIG -8.9905311E-02 AU
 INDIRECT ENERGY BAND GAP:   2.1193 eV
 BOTTOM OF VIRTUAL BANDS - BAND    253; K    1; EIG -6.7369130E-02 AU
 TTTTTTTTTTTTTTTTTTTTTTTTTTTTTT PDIG        TELAPSE       41.99 TCPU       39.45
 TTTTTTTTTTTTTTTTTTTTTTTTTTTTTT MOQGAD      TELAPSE       41.99 TCPU       39.45
 TTTTTTTTTTTTTTTTTTTTTTTTTTTTTT SHELLXN     TELAPSE       44.22 TCPU       41.66
 TTTTTTTTTTTTTTTTTTTTTTTTTTTTTT MONMO3      TELAPSE       44.23 TCPU       41.67
 NUMERICALLY INTEGRATED DENSITY    503.9999877909
 TTTTTTTTTTTTTTTTTTTTTTTTTTTTTT NUMDFT      TELAPSE       44.44 TCPU       41.88
 CYC   9 ETOT(AU) -3.211838809899E+04 DETOT  5.88E-09 tst  8.28E-11 PX  7.60E-06
 TTTTTTTTTTTTTTTTTTTTTTTTTTTTTT DIIS        TELAPSE       44.69 TCPU       42.13
 DIIS TEST: 0.10365E-09 AT SCF   CYCLE   9 - DIIS ACTIVE - HISTORY:     9 CYCLES
 TTTTTTTTTTTTTTTTTTTTTTTTTTTTTT FDIK        TELAPSE       45.26 TCPU       42.68
 INSULATING STATE
 TOP OF VALENCE BANDS -    BAND    252; K    5; EIG -1.6778758E-01 AU
 TOP OF VALENCE BANDS -    BAND    252; K    1; EIG -1.9728772E-01 AU
 BOTTOM OF VIRTUAL BANDS - BAND    253; K   76; EIG -8.9905171E-02 AU
 INDIRECT ENERGY BAND GAP:   2.1193 eV
 BOTTOM OF VIRTUAL BANDS - BAND    253; K    1; EIG -6.7368875E-02 AU
 TTTTTTTTTTTTTTTTTTTTTTTTTTTTTT PDIG        TELAPSE       45.59 TCPU       43.02
 TTTTTTTTTTTTTTTTTTTTTTTTTTTTTT MOQGAD      TELAPSE       45.60 TCPU       43.02
 TTTTTTTTTTTTTTTTTTTTTTTTTTTTTT SHELLXN     TELAPSE       47.82 TCPU       45.23
 TTTTTTTTTTTTTTTTTTTTTTTTTTTTTT MONMO3      TELAPSE       47.84 TCPU       45.25
 NUMERICALLY INTEGRATED DENSITY    503.9999877909
 TTTTTTTTTTTTTTTTTTTTTTTTTTTTTT NUMDFT      TELAPSE       47.96 TCPU       45.37
 CYC  10 ETOT(AU) -3.211838809899E+04 DETOT -1.39E-09 tst  2.96E-12 PX  1.07E-06
 TTTTTTTTTTTTTTTTTTTTTTTTTTTTTT DIIS        TELAPSE       47.99 TCPU       45.40
 DIIS TEST: 0.43678E-11 AT SCF   CYCLE  10 - DIIS ACTIVE - HISTORY:    10 CYCLES
 TTTTTTTTTTTTTTTTTTTTTTTTTTTTTT FDIK        TELAPSE       48.60 TCPU       45.95
 INSULATING STATE
 TOP OF VALENCE BANDS -    BAND    252; K    5; EIG -1.6778760E-01 AU
 TOP OF VALENCE BANDS -    BAND    252; K    1; EIG -1.9728778E-01 AU
 BOTTOM OF VIRTUAL BANDS - BAND    253; K   76; EIG -8.9905238E-02 AU
 INDIRECT ENERGY BAND GAP:   2.1193 eV
 BOTTOM OF VIRTUAL BANDS - BAND    253; K    1; EIG -6.7368901E-02 AU
 TTTTTTTTTTTTTTTTTTTTTTTTTTTTTT PDIG        TELAPSE       48.93 TCPU       46.28
 TTTTTTTTTTTTTTTTTTTTTTTTTTTTTT MOQGAD      TELAPSE       48.94 TCPU       46.29
 TTTTTTTTTTTTTTTTTTTTTTTTTTTTTT SHELLXN     TELAPSE       51.15 TCPU       48.49
 TTTTTTTTTTTTTTTTTTTTTTTTTTTTTT MONMO3      TELAPSE       51.17 TCPU       48.51
 NUMERICALLY INTEGRATED DENSITY    503.9999877909
 TTTTTTTTTTTTTTTTTTTTTTTTTTTTTT NUMDFT      TELAPSE       51.40 TCPU       48.73
 CYC  11 ETOT(AU) -3.211838809899E+04 DETOT -9.46E-11 tst  4.36E-13 PX  4.84E-07
 TTTTTTTTTTTTTTTTTTTTTTTTTTTTTT DIIS        TELAPSE       51.42 TCPU       48.75
 DIIS TEST: 0.73500E-13 AT SCF   CYCLE  11 - DIIS ACTIVE - HISTORY:    11 CYCLES
 TTTTTTTTTTTTTTTTTTTTTTTTTTTTTT FDIK        TELAPSE       51.98 TCPU       49.31
 INSULATING STATE
 TOP OF VALENCE BANDS -    BAND    252; K    5; EIG -1.6778760E-01 AU
 TOP OF VALENCE BANDS -    BAND    252; K    1; EIG -1.9728779E-01 AU
 BOTTOM OF VIRTUAL BANDS - BAND    253; K   76; EIG -8.9905246E-02 AU
 INDIRECT ENERGY BAND GAP:   2.1193 eV
 BOTTOM OF VIRTUAL BANDS - BAND    253; K    1; EIG -6.7368911E-02 AU
 TTTTTTTTTTTTTTTTTTTTTTTTTTTTTT PDIG        TELAPSE       52.32 TCPU       49.65
 TTTTTTTTTTTTTTTTTTTTTTTTTTTTTT MOQGAD      TELAPSE       52.32 TCPU       49.65
 TTTTTTTTTTTTTTTTTTTTTTTTTTTTTT SHELLXN     TELAPSE       54.55 TCPU       51.86
 TTTTTTTTTTTTTTTTTTTTTTTTTTTTTT MONMO3      TELAPSE       54.56 TCPU       51.87
 NUMERICALLY INTEGRATED DENSITY    503.9999877909
 TTTTTTTTTTTTTTTTTTTTTTTTTTTTTT NUMDFT      TELAPSE       54.69 TCPU       51.99
 CYC  12 ETOT(AU) -3.211838809899E+04 DETOT -1.38E-10 tst  4.72E-15 PX  6.13E-08
 TTTTTTTTTTTTTTTTTTTTTTTTTTTTTT DIIS        TELAPSE       54.72 TCPU       52.03
 DIIS TEST: 0.34760E-14 AT SCF   CYCLE  12 - DIIS ACTIVE - HISTORY:    12 CYCLES
 TTTTTTTTTTTTTTTTTTTTTTTTTTTTTT FDIK        TELAPSE       55.33 TCPU       52.61
 INSULATING STATE
 TOP OF VALENCE BANDS -    BAND    252; K    5; EIG -1.6778759E-01 AU
 TOP OF VALENCE BANDS -    BAND    252; K    1; EIG -1.9728779E-01 AU
 BOTTOM OF VIRTUAL BANDS - BAND    253; K   76; EIG -8.9905246E-02 AU
 INDIRECT ENERGY BAND GAP:   2.1193 eV
 BOTTOM OF VIRTUAL BANDS - BAND    253; K    1; EIG -6.7368911E-02 AU
 TTTTTTTTTTTTTTTTTTTTTTTTTTTTTT PDIG        TELAPSE       55.66 TCPU       52.95
 TTTTTTTTTTTTTTTTTTTTTTTTTTTTTT MOQGAD      TELAPSE       55.67 TCPU       52.95
 TTTTTTTTTTTTTTTTTTTTTTTTTTTTTT SHELLXN     TELAPSE       57.89 TCPU       55.16
 TTTTTTTTTTTTTTTTTTTTTTTTTTTTTT MONMO3      TELAPSE       57.91 TCPU       55.18
 NUMERICALLY INTEGRATED DENSITY    503.9999877909
 TTTTTTTTTTTTTTTTTTTTTTTTTTTTTT NUMDFT      TELAPSE       58.05 TCPU       55.32
 CYC  13 ETOT(AU) -3.211838809899E+04 DETOT -2.91E-11 tst  1.36E-16 PX  1.41E-08
 TTTTTTTTTTTTTTTTTTTTTTTTTTTTTT DIIS        TELAPSE       58.08 TCPU       55.35
 DIIS TEST: 0.22367E-16 AT SCF   CYCLE  13 - DIIS ACTIVE - HISTORY:    13 CYCLES
 TTTTTTTTTTTTTTTTTTTTTTTTTTTTTT FDIK        TELAPSE       58.64 TCPU       55.91
 INSULATING STATE
 TOP OF VALENCE BANDS -    BAND    252; K    5; EIG -1.6778759E-01 AU
 TOP OF VALENCE BANDS -    BAND    252; K    1; EIG -1.9728779E-01 AU
 BOTTOM OF VIRTUAL BANDS - BAND    253; K   76; EIG -8.9905247E-02 AU
 INDIRECT ENERGY BAND GAP:   2.1193 eV
 BOTTOM OF VIRTUAL BANDS - BAND    253; K    1; EIG -6.7368912E-02 AU
 TTTTTTTTTTTTTTTTTTTTTTTTTTTTTT PDIG        TELAPSE       58.98 TCPU       56.24
 TTTTTTTTTTTTTTTTTTTTTTTTTTTTTT MOQGAD      TELAPSE       58.98 TCPU       56.25
 TTTTTTTTTTTTTTTTTTTTTTTTTTTTTT SHELLXN     TELAPSE       61.20 TCPU       58.45
 TTTTTTTTTTTTTTTTTTTTTTTTTTTTTT MONMO3      TELAPSE       61.22 TCPU       58.47
 NUMERICALLY INTEGRATED DENSITY    503.9999877909
 TTTTTTTTTTTTTTTTTTTTTTTTTTTTTT NUMDFT      TELAPSE       61.36 TCPU       58.60
 CYC  14 ETOT(AU) -3.211838809899E+04 DETOT  2.55E-11 tst  3.13E-19 PX  8.11E-10
 TTTTTTTTTTTTTTTTTTTTTTTTTTTTTT DIIS        TELAPSE       61.38 TCPU       58.62
 DIIS TEST: 0.15438E-17 AT SCF   CYCLE  14 - DIIS ACTIVE - HISTORY:    13 CYCLES
 TTTTTTTTTTTTTTTTTTTTTTTTTTTTTT FDIK        TELAPSE       61.94 TCPU       59.18
 INSULATING STATE
 TOP OF VALENCE BANDS -    BAND    252; K    5; EIG -1.6778759E-01 AU
 TOP OF VALENCE BANDS -    BAND    252; K    1; EIG -1.9728779E-01 AU
 BOTTOM OF VIRTUAL BANDS - BAND    253; K   76; EIG -8.9905247E-02 AU
 INDIRECT ENERGY BAND GAP:   2.1193 eV
 BOTTOM OF VIRTUAL BANDS - BAND    253; K    1; EIG -6.7368912E-02 AU
 TTTTTTTTTTTTTTTTTTTTTTTTTTTTTT PDIG        TELAPSE       62.28 TCPU       59.52
 TTTTTTTTTTTTTTTTTTTTTTTTTTTTTT MOQGAD      TELAPSE       62.28 TCPU       59.52
 TTTTTTTTTTTTTTTTTTTTTTTTTTTTTT SHELLXN     TELAPSE       64.50 TCPU       61.73
 TTTTTTTTTTTTTTTTTTTTTTTTTTTTTT MONMO3      TELAPSE       64.52 TCPU       61.74
 NUMERICALLY INTEGRATED DENSITY    503.9999877909
 TTTTTTTTTTTTTTTTTTTTTTTTTTTTTT NUMDFT      TELAPSE       64.64 TCPU       61.86
 CYC  15 ETOT(AU) -3.211838809899E+04 DETOT -8.37E-11 tst  8.95E-21 PX  1.25E-10
 TTTTTTTTTTTTTTTTTTTTTTTTTTTTTT DIIS        TELAPSE       64.67 TCPU       61.89
 DIIS TEST: 0.30279E-19 AT SCF   CYCLE  15 - DIIS ACTIVE - HISTORY:    12 CYCLES
 TTTTTTTTTTTTTTTTTTTTTTTTTTTTTT FDIK        TELAPSE       65.23 TCPU       62.45
 INSULATING STATE
 TOP OF VALENCE BANDS -    BAND    252; K    5; EIG -1.6778759E-01 AU
 TOP OF VALENCE BANDS -    BAND    252; K    1; EIG -1.9728779E-01 AU
 BOTTOM OF VIRTUAL BANDS - BAND    253; K   76; EIG -8.9905247E-02 AU
 INDIRECT ENERGY BAND GAP:   2.1193 eV
 BOTTOM OF VIRTUAL BANDS - BAND    253; K    1; EIG -6.7368912E-02 AU
 TTTTTTTTTTTTTTTTTTTTTTTTTTTTTT PDIG        TELAPSE       65.57 TCPU       62.78
 TTTTTTTTTTTTTTTTTTTTTTTTTTTTTT MOQGAD      TELAPSE       65.57 TCPU       62.79
 TTTTTTTTTTTTTTTTTTTTTTTTTTTTTT SHELLXN     TELAPSE       67.79 TCPU       64.99
 TTTTTTTTTTTTTTTTTTTTTTTTTTTTTT MONMO3      TELAPSE       67.81 TCPU       65.01
 NUMERICALLY INTEGRATED DENSITY    503.9999877909
 TTTTTTTTTTTTTTTTTTTTTTTTTTTTTT NUMDFT      TELAPSE       68.02 TCPU       65.21
 CYC  16 ETOT(AU) -3.211838809899E+04 DETOT  8.73E-11 tst  2.34E-22 PX  2.61E-11
 TTTTTTTTTTTTTTTTTTTTTTTTTTTTTT DIIS        TELAPSE       68.04 TCPU       65.24
 DIIS TEST: 0.62487E-21 AT SCF   CYCLE  16 - DIIS ACTIVE - HISTORY:    11 CYCLES
 TTTTTTTTTTTTTTTTTTTTTTTTTTTTTT FDIK        TELAPSE       68.60 TCPU       65.79
 INSULATING STATE
 TOP OF VALENCE BANDS -    BAND    252; K    5; EIG -1.6778759E-01 AU
 TOP OF VALENCE BANDS -    BAND    252; K    1; EIG -1.9728779E-01 AU
 BOTTOM OF VIRTUAL BANDS - BAND    253; K   76; EIG -8.9905247E-02 AU
 INDIRECT ENERGY BAND GAP:   2.1193 eV
 BOTTOM OF VIRTUAL BANDS - BAND    253; K    1; EIG -6.7368912E-02 AU
 TTTTTTTTTTTTTTTTTTTTTTTTTTTTTT PDIG        TELAPSE       68.94 TCPU       66.13
 TTTTTTTTTTTTTTTTTTTTTTTTTTTTTT MOQGAD      TELAPSE       68.94 TCPU       66.13
 TTTTTTTTTTTTTTTTTTTTTTTTTTTTTT SHELLXN     TELAPSE       71.17 TCPU       68.34
 TTTTTTTTTTTTTTTTTTTTTTTTTTTTTT MONMO3      TELAPSE       71.18 TCPU       68.36
 NUMERICALLY INTEGRATED DENSITY    503.9999877909
 TTTTTTTTTTTTTTTTTTTTTTTTTTTTTT NUMDFT      TELAPSE       71.31 TCPU       68.48
 CYC  17 ETOT(AU) -3.211838809899E+04 DETOT -6.91E-11 tst  1.74E-23 PX  3.68E-11
 TTTTTTTTTTTTTTTTTTTTTTTTTTTTTT DIIS        TELAPSE       71.33 TCPU       68.50
 DIIS TEST: 0.75656E-22 AT SCF   CYCLE  17 - DIIS ACTIVE - HISTORY:    11 CYCLES
 TTTTTTTTTTTTTTTTTTTTTTTTTTTTTT FDIK        TELAPSE       71.97 TCPU       69.13
 INSULATING STATE
 TOP OF VALENCE BANDS -    BAND    252; K    5; EIG -1.6778759E-01 AU
 TOP OF VALENCE BANDS -    BAND    252; K    1; EIG -1.9728779E-01 AU
 BOTTOM OF VIRTUAL BANDS - BAND    253; K   76; EIG -8.9905247E-02 AU
 INDIRECT ENERGY BAND GAP:   2.1193 eV
 BOTTOM OF VIRTUAL BANDS - BAND    253; K    1; EIG -6.7368912E-02 AU
 TTTTTTTTTTTTTTTTTTTTTTTTTTTTTT PDIG        TELAPSE       72.31 TCPU       69.47
 TTTTTTTTTTTTTTTTTTTTTTTTTTTTTT MOQGAD      TELAPSE       72.31 TCPU       69.47
 TTTTTTTTTTTTTTTTTTTTTTTTTTTTTT SHELLXN     TELAPSE       74.53 TCPU       71.68
 TTTTTTTTTTTTTTTTTTTTTTTTTTTTTT MONMO3      TELAPSE       74.55 TCPU       71.70
 NUMERICALLY INTEGRATED DENSITY    503.9999877909
 TTTTTTTTTTTTTTTTTTTTTTTTTTTTTT NUMDFT      TELAPSE       74.67 TCPU       71.82
 CYC  18 ETOT(AU) -3.211838809899E+04 DETOT  1.09E-11 tst  1.53E-24 PX  2.50E-11
 TTTTTTTTTTTTTTTTTTTTTTTTTTTTTT DIIS        TELAPSE       74.69 TCPU       71.84
 DIIS TEST: 0.62234E-22 AT SCF   CYCLE  18 - DIIS ACTIVE - HISTORY:    10 CYCLES
 TTTTTTTTTTTTTTTTTTTTTTTTTTTTTT FDIK        TELAPSE       75.26 TCPU       72.40
 INSULATING STATE
 TOP OF VALENCE BANDS -    BAND    252; K    5; EIG -1.6778759E-01 AU
 TOP OF VALENCE BANDS -    BAND    252; K    1; EIG -1.9728779E-01 AU
 BOTTOM OF VIRTUAL BANDS - BAND    253; K   76; EIG -8.9905247E-02 AU
 INDIRECT ENERGY BAND GAP:   2.1193 eV
 BOTTOM OF VIRTUAL BANDS - BAND    253; K    1; EIG -6.7368912E-02 AU
 TTTTTTTTTTTTTTTTTTTTTTTTTTTTTT PDIG        TELAPSE       75.60 TCPU       72.74
 TTTTTTTTTTTTTTTTTTTTTTTTTTTTTT MOQGAD      TELAPSE       75.60 TCPU       72.74
 TTTTTTTTTTTTTTTTTTTTTTTTTTTTTT SHELLXN     TELAPSE       77.91 TCPU       75.04
 TTTTTTTTTTTTTTTTTTTTTTTTTTTTTT MONMO3      TELAPSE       77.93 TCPU       75.05
 NUMERICALLY INTEGRATED DENSITY    503.9999877909
 TTTTTTTTTTTTTTTTTTTTTTTTTTTTTT NUMDFT      TELAPSE       78.06 TCPU       75.18
 CYC  19 ETOT(AU) -3.211838809899E+04 DETOT  1.46E-11 tst  3.72E-25 PX  8.77E-12
 TTTTTTTTTTTTTTTTTTTTTTTTTTTTTT DIIS        TELAPSE       78.09 TCPU       75.21
 DIIS TEST: 0.50650E-22 AT SCF   CYCLE  19 - DIIS ACTIVE - HISTORY:    11 CYCLES
 TTTTTTTTTTTTTTTTTTTTTTTTTTTTTT FDIK        TELAPSE       78.65 TCPU       75.77
 INSULATING STATE
 TOP OF VALENCE BANDS -    BAND    252; K    5; EIG -1.6778759E-01 AU
 TOP OF VALENCE BANDS -    BAND    252; K    1; EIG -1.9728779E-01 AU
 BOTTOM OF VIRTUAL BANDS - BAND    253; K   76; EIG -8.9905247E-02 AU
 INDIRECT ENERGY BAND GAP:   2.1193 eV
 BOTTOM OF VIRTUAL BANDS - BAND    253; K    1; EIG -6.7368912E-02 AU
 TTTTTTTTTTTTTTTTTTTTTTTTTTTTTT PDIG        TELAPSE       78.99 TCPU       76.11
 TTTTTTTTTTTTTTTTTTTTTTTTTTTTTT MOQGAD      TELAPSE       78.99 TCPU       76.11
 TTTTTTTTTTTTTTTTTTTTTTTTTTTTTT SHELLXN     TELAPSE       81.21 TCPU       78.31
 TTTTTTTTTTTTTTTTTTTTTTTTTTTTTT MONMO3      TELAPSE       81.23 TCPU       78.33
 NUMERICALLY INTEGRATED DENSITY    503.9999877909
 TTTTTTTTTTTTTTTTTTTTTTTTTTTTTT NUMDFT      TELAPSE       81.43 TCPU       78.53
 CYC  20 ETOT(AU) -3.211838809899E+04 DETOT -1.09E-11 tst  9.46E-26 PX  4.04E-12
 TTTTTTTTTTTTTTTTTTTTTTTTTTTTTT DIIS        TELAPSE       81.46 TCPU       78.56
 DIIS TEST: 0.48225E-22 AT SCF   CYCLE  20 - DIIS ACTIVE - HISTORY:    12 CYCLES
 TTTTTTTTTTTTTTTTTTTTTTTTTTTTTT FDIK        TELAPSE       82.04 TCPU       79.13
 INSULATING STATE
 TOP OF VALENCE BANDS -    BAND    252; K    5; EIG -1.6778759E-01 AU
 TOP OF VALENCE BANDS -    BAND    252; K    1; EIG -1.9728779E-01 AU
 BOTTOM OF VIRTUAL BANDS - BAND    253; K   76; EIG -8.9905247E-02 AU
 INDIRECT ENERGY BAND GAP:   2.1193 eV
 BOTTOM OF VIRTUAL BANDS - BAND    253; K    1; EIG -6.7368912E-02 AU
 TTTTTTTTTTTTTTTTTTTTTTTTTTTTTT PDIG        TELAPSE       82.38 TCPU       79.46
 TTTTTTTTTTTTTTTTTTTTTTTTTTTTTT MOQGAD      TELAPSE       82.38 TCPU       79.47
 TTTTTTTTTTTTTTTTTTTTTTTTTTTTTT SHELLXN     TELAPSE       84.60 TCPU       81.67
 TTTTTTTTTTTTTTTTTTTTTTTTTTTTTT MONMO3      TELAPSE       84.62 TCPU       81.69
 NUMERICALLY INTEGRATED DENSITY    503.9999877909
 TTTTTTTTTTTTTTTTTTTTTTTTTTTTTT NUMDFT      TELAPSE       84.85 TCPU       81.93
 CYC  21 ETOT(AU) -3.211838809899E+04 DETOT  1.82E-11 tst  3.15E-26 PX  1.02E-12
 TTTTTTTTTTTTTTTTTTTTTTTTTTTTTT DIIS        TELAPSE       85.08 TCPU       82.15
 DIIS TEST: 0.53759E-22 AT SCF   CYCLE  21 - DIIS ACTIVE - HISTORY:    12 CYCLES
 TTTTTTTTTTTTTTTTTTTTTTTTTTTTTT FDIK        TELAPSE       85.65 TCPU       82.71
 INSULATING STATE
 TOP OF VALENCE BANDS -    BAND    252; K    5; EIG -1.6778759E-01 AU
 TOP OF VALENCE BANDS -    BAND    252; K    1; EIG -1.9728779E-01 AU
 BOTTOM OF VIRTUAL BANDS - BAND    253; K   76; EIG -8.9905247E-02 AU
 INDIRECT ENERGY BAND GAP:   2.1193 eV
 BOTTOM OF VIRTUAL BANDS - BAND    253; K    1; EIG -6.7368912E-02 AU
 TTTTTTTTTTTTTTTTTTTTTTTTTTTTTT PDIG        TELAPSE       85.99 TCPU       83.05
 TTTTTTTTTTTTTTTTTTTTTTTTTTTTTT MOQGAD      TELAPSE       85.99 TCPU       83.05
 TTTTTTTTTTTTTTTTTTTTTTTTTTTTTT SHELLXN     TELAPSE       88.21 TCPU       85.26
 TTTTTTTTTTTTTTTTTTTTTTTTTTTTTT MONMO3      TELAPSE       88.22 TCPU       85.27
 NUMERICALLY INTEGRATED DENSITY    503.9999877909
 TTTTTTTTTTTTTTTTTTTTTTTTTTTTTT NUMDFT      TELAPSE       88.35 TCPU       85.39
 CYC  22 ETOT(AU) -3.211838809899E+04 DETOT  2.18E-11 tst  1.20E-26 PX  1.05E-12
 TTTTTTTTTTTTTTTTTTTTTTTTTTTTTT DIIS        TELAPSE       88.38 TCPU       85.43
 DIIS TEST: 0.54970E-22 AT SCF   CYCLE  22 - DIIS ACTIVE - HISTORY:    13 CYCLES
 TTTTTTTTTTTTTTTTTTTTTTTTTTTTTT FDIK        TELAPSE       88.95 TCPU       85.99
 INSULATING STATE
 TOP OF VALENCE BANDS -    BAND    252; K    5; EIG -1.6778759E-01 AU
 TOP OF VALENCE BANDS -    BAND    252; K    1; EIG -1.9728779E-01 AU
 BOTTOM OF VIRTUAL BANDS - BAND    253; K   76; EIG -8.9905247E-02 AU
 INDIRECT ENERGY BAND GAP:   2.1193 eV
 BOTTOM OF VIRTUAL BANDS - BAND    253; K    1; EIG -6.7368912E-02 AU
 TTTTTTTTTTTTTTTTTTTTTTTTTTTTTT PDIG        TELAPSE       89.28 TCPU       86.32
 TTTTTTTTTTTTTTTTTTTTTTTTTTTTTT MOQGAD      TELAPSE       89.29 TCPU       86.32
 TTTTTTTTTTTTTTTTTTTTTTTTTTTTTT SHELLXN     TELAPSE       91.51 TCPU       88.53
 TTTTTTTTTTTTTTTTTTTTTTTTTTTTTT MONMO3      TELAPSE       91.53 TCPU       88.55
 NUMERICALLY INTEGRATED DENSITY    503.9999877909
 TTTTTTTTTTTTTTTTTTTTTTTTTTTTTT NUMDFT      TELAPSE       91.73 TCPU       88.75
 CYC  23 ETOT(AU) -3.211838809899E+04 DETOT -1.09E-11 tst  1.91E-26 PX  2.77E-13
 TTTTTTTTTTTTTTTTTTTTTTTTTTTTTT DIIS        TELAPSE       91.75 TCPU       88.78
 DIIS TEST: 0.54612E-22 AT SCF   CYCLE  23 - DIIS ACTIVE - HISTORY:    14 CYCLES
 TTTTTTTTTTTTTTTTTTTTTTTTTTTTTT FDIK        TELAPSE       92.32 TCPU       89.34
 INSULATING STATE
 TOP OF VALENCE BANDS -    BAND    252; K    5; EIG -1.6778759E-01 AU
 TOP OF VALENCE BANDS -    BAND    252; K    1; EIG -1.9728779E-01 AU
 BOTTOM OF VIRTUAL BANDS - BAND    253; K   76; EIG -8.9905247E-02 AU
 INDIRECT ENERGY BAND GAP:   2.1193 eV
 BOTTOM OF VIRTUAL BANDS - BAND    253; K    1; EIG -6.7368912E-02 AU
 TTTTTTTTTTTTTTTTTTTTTTTTTTTTTT PDIG        TELAPSE       92.66 TCPU       89.68
 TTTTTTTTTTTTTTTTTTTTTTTTTTTTTT MOQGAD      TELAPSE       92.66 TCPU       89.68
 TTTTTTTTTTTTTTTTTTTTTTTTTTTTTT SHELLXN     TELAPSE       94.88 TCPU       91.88
 TTTTTTTTTTTTTTTTTTTTTTTTTTTTTT MONMO3      TELAPSE       94.90 TCPU       91.90
 NUMERICALLY INTEGRATED DENSITY    503.9999877909
 TTTTTTTTTTTTTTTTTTTTTTTTTTTTTT NUMDFT      TELAPSE       95.14 TCPU       92.14
 CYC  24 ETOT(AU) -3.211838809899E+04 DETOT -2.18E-11 tst  3.48E-26 PX  4.92E-13
 TTTTTTTTTTTTTTTTTTTTTTTTTTTTTT DIIS        TELAPSE       95.16 TCPU       92.16
 DIIS TEST: 0.56833E-22 AT SCF   CYCLE  24 - DIIS ACTIVE - HISTORY:    15 CYCLES
 TTTTTTTTTTTTTTTTTTTTTTTTTTTTTT FDIK        TELAPSE       95.73 TCPU       92.73
 INSULATING STATE
 TOP OF VALENCE BANDS -    BAND    252; K    5; EIG -1.6778759E-01 AU
 TOP OF VALENCE BANDS -    BAND    252; K    1; EIG -1.9728779E-01 AU
 BOTTOM OF VIRTUAL BANDS - BAND    253; K   76; EIG -8.9905247E-02 AU
 INDIRECT ENERGY BAND GAP:   2.1193 eV
 BOTTOM OF VIRTUAL BANDS - BAND    253; K    1; EIG -6.7368912E-02 AU
 TTTTTTTTTTTTTTTTTTTTTTTTTTTTTT PDIG        TELAPSE       96.07 TCPU       93.07
 TTTTTTTTTTTTTTTTTTTTTTTTTTTTTT MOQGAD      TELAPSE       96.08 TCPU       93.07
 TTTTTTTTTTTTTTTTTTTTTTTTTTTTTT SHELLXN     TELAPSE       98.30 TCPU       95.27
 TTTTTTTTTTTTTTTTTTTTTTTTTTTTTT MONMO3      TELAPSE       98.31 TCPU       95.29
 NUMERICALLY INTEGRATED DENSITY    503.9999877909
 TTTTTTTTTTTTTTTTTTTTTTTTTTTTTT NUMDFT      TELAPSE       98.45 TCPU       95.42
 CYC  25 ETOT(AU) -3.211838809899E+04 DETOT -2.91E-11 tst  9.66E-27 PX  1.14E-12
 TTTTTTTTTTTTTTTTTTTTTTTTTTTTTT DIIS        TELAPSE       98.47 TCPU       95.45
 DIIS TEST: 0.58391E-22 AT SCF   CYCLE  25 - DIIS ACTIVE - HISTORY:    16 CYCLES
 TTTTTTTTTTTTTTTTTTTTTTTTTTTTTT FDIK        TELAPSE       99.03 TCPU       96.01
 INSULATING STATE
 TOP OF VALENCE BANDS -    BAND    252; K    5; EIG -1.6778759E-01 AU
 TOP OF VALENCE BANDS -    BAND    252; K    1; EIG -1.9728779E-01 AU
 BOTTOM OF VIRTUAL BANDS - BAND    253; K   76; EIG -8.9905247E-02 AU
 INDIRECT ENERGY BAND GAP:   2.1193 eV
 BOTTOM OF VIRTUAL BANDS - BAND    253; K    1; EIG -6.7368912E-02 AU
 TTTTTTTTTTTTTTTTTTTTTTTTTTTTTT PDIG        TELAPSE       99.37 TCPU       96.34
 TTTTTTTTTTTTTTTTTTTTTTTTTTTTTT MOQGAD      TELAPSE       99.38 TCPU       96.34
 TTTTTTTTTTTTTTTTTTTTTTTTTTTTTT SHELLXN     TELAPSE      101.60 TCPU       98.55
 TTTTTTTTTTTTTTTTTTTTTTTTTTTTTT MONMO3      TELAPSE      101.61 TCPU       98.57
 NUMERICALLY INTEGRATED DENSITY    503.9999877909
 TTTTTTTTTTTTTTTTTTTTTTTTTTTTTT NUMDFT      TELAPSE      101.81 TCPU       98.77
 CYC  26 ETOT(AU) -3.211838809899E+04 DETOT  7.28E-12 tst  2.75E-26 PX  1.44E-13
 TTTTTTTTTTTTTTTTTTTTTTTTTTTTTT DIIS        TELAPSE      101.84 TCPU       98.79
 DIIS TEST: 0.62333E-22 AT SCF   CYCLE  26 - DIIS ACTIVE - HISTORY:    17 CYCLES
 TTTTTTTTTTTTTTTTTTTTTTTTTTTTTT FDIK        TELAPSE      102.40 TCPU       99.35
 INSULATING STATE
 TOP OF VALENCE BANDS -    BAND    252; K    5; EIG -1.6778759E-01 AU
 TOP OF VALENCE BANDS -    BAND    252; K    1; EIG -1.9728779E-01 AU
 BOTTOM OF VIRTUAL BANDS - BAND    253; K   76; EIG -8.9905247E-02 AU
 INDIRECT ENERGY BAND GAP:   2.1193 eV
 BOTTOM OF VIRTUAL BANDS - BAND    253; K    1; EIG -6.7368912E-02 AU
 TTTTTTTTTTTTTTTTTTTTTTTTTTTTTT PDIG        TELAPSE      102.74 TCPU       99.69
 TTTTTTTTTTTTTTTTTTTTTTTTTTTTTT MOQGAD      TELAPSE      102.74 TCPU       99.69
 TTTTTTTTTTTTTTTTTTTTTTTTTTTTTT SHELLXN     TELAPSE      104.96 TCPU      101.89
 ::: PSEUDO TOTAL   ENERGY                        -3.1189453825848E+04
 ::: VIRIAL COEFFICIENT                            1.0138997079649E+00
 TTTTTTTTTTTTTTTTTTTTTTTTTTTTTT MONMO3      TELAPSE      104.98 TCPU      101.91
 NUMERICALLY INTEGRATED DENSITY    503.9999877909
 EXCHANGE ENERGY: -0.904270870552E+03  CORRELATION ENERGY: -0.246634025939E+02
 TTTTTTTTTTTTTTTTTTTTTTTTTTTTTT NUMDFT      TELAPSE      105.11 TCPU      102.04
 CYC  27 ETOT(AU) -3.211838809899E+04 DETOT  3.27E-11 tst  4.45E-26 PX  1.44E-13

 == SCF ENDED - CONVERGENCE ON ENERGY      E(AU) -3.2118388098994E+04 CYCLES  27


 ENERGY EXPRESSION=HARTREE+FOCK EXCH*0.25000+(PBE        EXCH)*0.75000+PBE        CORR


 TOTAL ENERGY(DFT)(AU)( 27) -3.2118388098994E+04 DE 3.3E-11 tester 4.5E-26
 TTTTTTTTTTTTTTTTTTTTTTTTTTTTTT EDFT        TELAPSE      105.11 TCPU      102.04

 *******************************************************************************
 *                             FORCE CALCULATION                               *
 *******************************************************************************

 TTTTTTTTTTTTTTTTTTTTTTTTTTTTTT NUMDFG      TELAPSE      105.47 TCPU      102.40
 INFORMATION **** EXCPOG **** EXCH. BIPO BUFFER LENGTH (WORDS) =     8367912
 INFORMATION **** GENPOG **** BIPO BUFFER LENGTH (WORDS) =     2098000
 TTTTTTTTTTTTTTTTTTTTTTTTTTTTTT SHELXG      TELAPSE      118.35 TCPU      115.19

 CARTESIAN FORCES IN HARTREE/BOHR (ANALYTICAL)
   ATOM                     X                   Y                   Z
   1  30            -1.645231872733E-03 -3.226677579573E-03  2.013359151370E-03
   2  30             1.645231872791E-03  3.226677579491E-03  2.013359151377E-03
   3  30            -1.645231872776E-03  3.226677579551E-03 -2.013359151389E-03
   4  30             1.645231872724E-03 -3.226677579534E-03 -2.013359151406E-03
   5  30             1.645231872765E-03  3.226677579480E-03 -2.013359151378E-03
   6  30            -1.645231872745E-03 -3.226677579488E-03 -2.013359151396E-03
   7  30             1.645231872762E-03 -3.226677579555E-03  2.013359151349E-03
   8  30            -1.645231872769E-03  3.226677579550E-03  2.013359151393E-03
   9  33             2.433956421467E-03 -2.610926707174E-04  8.355723666718E-04
  10  33            -2.433956421473E-03  2.610926708115E-04  8.355723666069E-04
  11  33             2.433956421454E-03  2.610926707529E-04 -8.355723666389E-04
  12  33            -2.433956421444E-03 -2.610926708027E-04 -8.355723666247E-04
  13  33            -2.433956421426E-03  2.610926707529E-04 -8.355723666016E-04
  14  33             2.433956421464E-03 -2.610926707032E-04 -8.355723666211E-04
  15  33            -2.433956421496E-03 -2.610926708009E-04  8.355723666540E-04
  16  33             2.433956421432E-03  2.610926707707E-04  8.355723666309E-04

 RESULTANT FORCE    -4.884981308351E-15 -1.421085471520E-14 -3.108624468950E-15

 ATOMIC PART

 SYMMETRY ALLOWED FORCES (ANALYTICAL) (DIRECTION, FORCE)

    1 -4.6534185E-03    2 -9.1264224E-03    3  5.6946396E-03    4  6.8842684E-03
    5 -7.3848159E-04    6  2.3633555E-03

 CELL PART

 GRADIENT WITH RESPECT TO THE CELL PARAMETER IN HARTREE/BOHR
ORDER: -D/DA1X, -D/DA1Y, -D/DA1Z
       -D/DA2X, -D/DA2Y, -D/DA2Z
       -D/DA3X, -D/DA3Y, -D/DA3Z
 -0.229855209000E-01  0.176268326161E-13  0.875379294139E-14
  0.797904978559E-14 -0.157966204635E-01  0.318996565026E-14
  0.228590725199E-14 -0.292994295985E-14 -0.153771585062E-01

STRESS TENSOR, IN HARTREE/BOHR^3:
ORDER: 11 12 13
       21 22 23
       31 32 33
  0.117068167488E-03 -0.521161207525E-16 -0.155089913009E-16
 -0.897756897466E-16  0.103177521344E-03  0.198785229964E-16
 -0.445841755197E-16 -0.208356432774E-16  0.104328037499E-03

PRESSURE FROM THE STRESS TENSOR,
IN HARTREE/BOHR^3: -0.10819E-03
PRESSURE IN GIGAPASCAL: -0.3183E+01
CONVERSION FACTOR: 1 HARTREE/BOHR^3= 29421 GIGAPASCAL
WHEN USING VALUES FOR BOHR RADIUS AND HARTREE
FROM IUPAC WEBSITE, APRIL 2009
ENTHALPY: -3.2118615832507E+04

 SYMMETRY ALLOWED FORCES (ANALYTICAL) (DIRECTION, FORCE)

    1 -2.6007009E-02    2 -1.6254158E-03    3  1.0582531E-04
 TTTTTTTTTTTTTTTTTTTTTTTTTTTTTT TOTGRA      TELAPSE      118.81 TCPU      115.66
 INFORMATION **** optc001 **** GEOMETRY OUTPUT FILE
 CLASSICAL MODEL (SCHLEGEL) USED AS INITIAL HESSIAN MATRIX
 REFERENCE GEOMETRY DEFINED

 MAX GRADIENT      0.026007  THRESHOLD              0.000045 CONVERGED NO
 RMS GRADIENT      0.009831  THRESHOLD              0.000030 CONVERGED NO

 GRADIENT NORM     0.029494  GRADIENT THRESHOLD     0.500000

 EIGENVALUES OF THE ESTIMATED HESSIAN
  0.1512E-01  0.2450E-01  0.3871E-01  0.6704E-01  0.1008      0.1389    
  0.1863      0.3115      0.3794    
 NEWTON STEP ( 0.6812179586E+00) EXCEEDS TRUST RADIUS ( 0.5000000000E+00)
 LEVEL SHIFT     0.6995126667E-03

 INITIAL TRUST RADIUS    0.5000000000E+00

 PREDICTED ENERGY CHANGE    -0.700E-02

 INITIAL DISPLACEMENTS
 -0.118628 -0.025721 -0.036466 -0.054137 -0.069384  0.112905 -0.386523 -0.249095
  0.044670
 TTTTTTTTTTTTTTTTTTTTTTTTTTTTTT OPTI        TELAPSE      121.90 TCPU      118.71

 OPTOPTOPTOPTOPTOPTOPTOPTOPTOPTOPTOPTOPTOPTOPTOPTOPTOPTOPTOPTOPTOPTOPTOPTOPTOPT

 - INFORMATION ON SCF MOVED TO SCFOUT.LOG
 GEOMETRY OPTIMIZATION INFORMATION STORED IN OPTINFO.DAT

 OPTOPTOPTOPTOPTOPTOPTOPTOPTOPTOPTOPTOPTOPTOPTOPTOPTOPTOPTOPTOPTOPTOPTOPTOPTOPT
 *******************************************************************************
 COORDINATE AND CELL OPTIMIZATION - POINT    2
 *******************************************************************************
 LATTICE PARAMETERS (ANGSTROMS AND DEGREES) - BOHR = 0.5291772083 ANGSTROM
 PRIMITIVE CELL - CENTRING CODE 1/0 VOLUME=   298.300327 - DENSITY  6.183 g/cm^3
         A              B              C           ALPHA      BETA       GAMMA 
     5.50767636     7.23510386     7.48584012    90.000000  90.000000  90.000000
 *******************************************************************************
 ATOMS IN THE ASYMMETRIC UNIT    2 - ATOMS IN THE UNIT CELL:   16
     ATOM                 X/A                 Y/B                 Z/C    
 *******************************************************************************
      1 T  30 ZN    3.753776846784E-02 -3.804514408084E-01 -1.363627866321E-01
      2 F  30 ZN    4.624622315322E-01  3.804514408084E-01  3.636372133679E-01
      3 F  30 ZN   -4.624622315322E-01 -1.195485591916E-01  1.363627866321E-01
      4 F  30 ZN   -3.753776846784E-02  1.195485591916E-01 -3.636372133679E-01
      5 F  30 ZN   -3.753776846784E-02  3.804514408084E-01  1.363627866321E-01
      6 F  30 ZN   -4.624622315322E-01 -3.804514408084E-01 -3.636372133679E-01
      7 F  30 ZN    4.624622315322E-01  1.195485591916E-01 -1.363627866321E-01
      8 F  30 ZN    3.753776846784E-02 -1.195485591916E-01  3.636372133679E-01
      9 T  33 AS   -3.635853891112E-01  7.090172713931E-02  4.019551663004E-01
     10 F  33 AS   -1.364146108888E-01 -7.090172713931E-02 -9.804483369964E-02
     11 F  33 AS    1.364146108888E-01  4.290982728607E-01 -4.019551663004E-01
     12 F  33 AS    3.635853891112E-01 -4.290982728607E-01  9.804483369964E-02
     13 F  33 AS    3.635853891112E-01 -7.090172713931E-02 -4.019551663004E-01
     14 F  33 AS    1.364146108888E-01  7.090172713931E-02  9.804483369964E-02
     15 F  33 AS   -1.364146108888E-01 -4.290982728607E-01  4.019551663004E-01
     16 F  33 AS   -3.635853891112E-01  4.290982728607E-01 -9.804483369964E-02

 T = ATOM BELONGING TO THE ASYMMETRIC UNIT

 TOTAL ENERGY(DFT)(AU)( 12) -3.2118387611147E+04     DE (AU)    4.878E-04

 UPDATED TRUST RADIUS     0.125E+00
 ENERGY CHANGE > 0: STEP REJECTED. RETRYING WITH A NEW STEP

 EIGENVALUES OF THE ESTIMATED HESSIAN
  0.1512E-01  0.2450E-01  0.3871E-01  0.6704E-01  0.1008      0.1389    
  0.1863      0.3115      0.3794    
 NEWTON STEP ( 0.6812179586E+00) EXCEEDS TRUST RADIUS ( 0.1250000000E+00)
 LEVEL SHIFT    -0.4256309910E-01

 PREDICTED ENERGY CHANGE    -0.297E-02

 MAX GRADIENT      0.026007  THRESHOLD              0.000045 CONVERGED NO
 RMS GRADIENT      0.009831  THRESHOLD              0.000030 CONVERGED NO
 MAX DISPLAC.      0.110912  THRESHOLD              0.000180 CONVERGED NO
 RMS DISPLAC.      0.041667  THRESHOLD              0.000120 CONVERGED NO
 TTTTTTTTTTTTTTTTTTTTTTTTTTTTTT OPTI        TELAPSE      172.49 TCPU      168.90
 *******************************************************************************
 COORDINATE AND CELL OPTIMIZATION - POINT    3
 *******************************************************************************
 LATTICE PARAMETERS (ANGSTROMS AND DEGREES) - BOHR = 0.5291772083 ANGSTROM
 PRIMITIVE CELL - CENTRING CODE 1/0 VOLUME=   307.981276 - DENSITY  5.989 g/cm^3
         A              B              C           ALPHA      BETA       GAMMA 
     5.63719648     7.25350872     7.53204670    90.000000  90.000000  90.000000
 *******************************************************************************
 ATOMS IN THE ASYMMETRIC UNIT    2 - ATOMS IN THE UNIT CELL:   16
     ATOM                 X/A                 Y/B                 Z/C    
 *******************************************************************************
      1 T  30 ZN    4.028136293196E-02 -3.802110056494E-01 -1.355034613101E-01
      2 F  30 ZN    4.597186370680E-01  3.802110056494E-01  3.644965386899E-01
      3 F  30 ZN   -4.597186370680E-01 -1.197889943506E-01  1.355034613101E-01
      4 F  30 ZN   -4.028136293196E-02  1.197889943506E-01 -3.644965386899E-01
      5 F  30 ZN   -4.028136293196E-02  3.802110056494E-01  1.355034613101E-01
      6 F  30 ZN   -4.597186370680E-01 -3.802110056494E-01 -3.644965386899E-01
      7 F  30 ZN    4.597186370680E-01  1.197889943506E-01 -1.355034613101E-01
      8 F  30 ZN    4.028136293196E-02 -1.197889943506E-01  3.644965386899E-01
      9 T  33 AS   -3.612718020231E-01  7.252654462112E-02  3.994816073265E-01
     10 F  33 AS   -1.387281979769E-01 -7.252654462112E-02 -1.005183926735E-01
     11 F  33 AS    1.387281979769E-01  4.274734553789E-01 -3.994816073265E-01
     12 F  33 AS    3.612718020231E-01 -4.274734553789E-01  1.005183926735E-01
     13 F  33 AS    3.612718020231E-01 -7.252654462112E-02 -3.994816073265E-01
     14 F  33 AS    1.387281979769E-01  7.252654462112E-02  1.005183926735E-01
     15 F  33 AS   -1.387281979769E-01 -4.274734553789E-01  3.994816073265E-01
     16 F  33 AS   -3.612718020231E-01  4.274734553789E-01 -1.005183926735E-01

 T = ATOM BELONGING TO THE ASYMMETRIC UNIT

 TOTAL ENERGY(DFT)(AU)( 22) -3.2118390956271E+04     DE (AU)   -2.857E-03

 UPDATED TRUST RADIUS     0.250E+00

 SYMMETRY ALLOWED FORCES  (COORDINATE, FORCE)

    1 -4.5567298E-03    2 -7.9664261E-03    3  5.0992288E-03    4  7.3302927E-03
    5  1.8912276E-03    6 -5.0410100E-04    7 -1.6963971E-02    8 -7.9985681E-04
    9 -1.1958614E-04

 GRADIENT NORM     0.021359  GRADIENT THRESHOLD     0.500000

 EIGENVALUES OF THE ESTIMATED HESSIAN
  0.1442E-01  0.2866E-01  0.3816E-01  0.8045E-01  0.1081      0.1325    
  0.1847      0.3014      0.3785    
 NEWTON STEP ( 0.1018279231E+01) EXCEEDS TRUST RADIUS ( 0.2500000000E+00)
 LEVEL SHIFT    -0.4338427222E-01

 PREDICTED ENERGY CHANGE    -0.398E-02

 MAX GRADIENT      0.016964  THRESHOLD              0.000045 CONVERGED NO
 RMS GRADIENT      0.007120  THRESHOLD              0.000030 CONVERGED NO
 MAX DISPLAC.      0.154020  THRESHOLD              0.000180 CONVERGED NO
 RMS DISPLAC.      0.083333  THRESHOLD              0.000120 CONVERGED NO
 TTTTTTTTTTTTTTTTTTTTTTTTTTTTTT OPTI        TELAPSE      270.69 TCPU      265.29
 *******************************************************************************
 COORDINATE AND CELL OPTIMIZATION - POINT    4
 *******************************************************************************
 LATTICE PARAMETERS (ANGSTROMS AND DEGREES) - BOHR = 0.5291772083 ANGSTROM
 PRIMITIVE CELL - CENTRING CODE 1/0 VOLUME=   302.595512 - DENSITY  6.096 g/cm^3
         A              B              C           ALPHA      BETA       GAMMA 
     5.59699398     7.21345984     7.49486864    90.000000  90.000000  90.000000
 *******************************************************************************
 ATOMS IN THE ASYMMETRIC UNIT    2 - ATOMS IN THE UNIT CELL:   16
     ATOM                 X/A                 Y/B                 Z/C    
 *******************************************************************************
      1 T  30 ZN    3.761194800737E-02 -3.821681600892E-01 -1.349693441018E-01
      2 F  30 ZN    4.623880519926E-01  3.821681600892E-01  3.650306558982E-01
      3 F  30 ZN   -4.623880519926E-01 -1.178318399108E-01  1.349693441018E-01
      4 F  30 ZN   -3.761194800737E-02  1.178318399108E-01 -3.650306558982E-01
      5 F  30 ZN   -3.761194800737E-02  3.821681600892E-01  1.349693441018E-01
      6 F  30 ZN   -4.623880519926E-01 -3.821681600892E-01 -3.650306558982E-01
      7 F  30 ZN    4.623880519926E-01  1.178318399108E-01 -1.349693441018E-01
      8 F  30 ZN    3.761194800737E-02 -1.178318399108E-01  3.650306558982E-01
      9 T  33 AS   -3.569851784139E-01  7.426075974123E-02  3.979154507939E-01
     10 F  33 AS   -1.430148215861E-01 -7.426075974123E-02 -1.020845492061E-01
     11 F  33 AS    1.430148215861E-01  4.257392402588E-01 -3.979154507939E-01
     12 F  33 AS    3.569851784139E-01 -4.257392402588E-01  1.020845492061E-01
     13 F  33 AS    3.569851784139E-01 -7.426075974123E-02 -3.979154507939E-01
     14 F  33 AS    1.430148215861E-01  7.426075974123E-02  1.020845492061E-01
     15 F  33 AS   -1.430148215861E-01 -4.257392402588E-01  3.979154507939E-01
     16 F  33 AS   -3.569851784139E-01  4.257392402588E-01 -1.020845492061E-01

 T = ATOM BELONGING TO THE ASYMMETRIC UNIT

 TOTAL ENERGY(DFT)(AU)( 15) -3.2118392570722E+04     DE (AU)   -1.614E-03

 UPDATED TRUST RADIUS     0.250E+00

 SYMMETRY ALLOWED FORCES  (COORDINATE, FORCE)

    1 -2.2249466E-03    2 -3.6425744E-03    3  1.0382130E-03    4 -1.6026201E-02
    5 -6.8458801E-03    6  1.4456496E-02    7 -7.3988666E-03    8 -1.2214366E-03
    9  2.0436040E-03

 GRADIENT NORM     0.024339  GRADIENT THRESHOLD     0.500000

 EIGENVALUES OF THE ESTIMATED HESSIAN
  0.2600E-01  0.3035E-01  0.4565E-01  0.1008      0.1208      0.1684    
  0.1855      0.2921      0.3771    
 NEWTON STEP ( 0.4340538234E+00) EXCEEDS TRUST RADIUS ( 0.2500000000E+00)
 LEVEL SHIFT    -0.4831958627E-02

 PREDICTED ENERGY CHANGE    -0.325E-02

 MAX GRADIENT      0.016026  THRESHOLD              0.000045 CONVERGED NO
 RMS GRADIENT      0.008113  THRESHOLD              0.000030 CONVERGED NO
 MAX DISPLAC.      0.177618  THRESHOLD              0.000180 CONVERGED NO
 RMS DISPLAC.      0.083333  THRESHOLD              0.000120 CONVERGED NO
 TTTTTTTTTTTTTTTTTTTTTTTTTTTTTT OPTI        TELAPSE      347.04 TCPU      341.05
 *******************************************************************************
 COORDINATE AND CELL OPTIMIZATION - POINT    5
 *******************************************************************************
 LATTICE PARAMETERS (ANGSTROMS AND DEGREES) - BOHR = 0.5291772083 ANGSTROM
 PRIMITIVE CELL - CENTRING CODE 1/0 VOLUME=   296.496810 - DENSITY  6.221 g/cm^3
         A              B              C           ALPHA      BETA       GAMMA 
     5.54781490     7.18742040     7.43575400    90.000000  90.000000  90.000000
 *******************************************************************************
 ATOMS IN THE ASYMMETRIC UNIT    2 - ATOMS IN THE UNIT CELL:   16
     ATOM                 X/A                 Y/B                 Z/C    
 *******************************************************************************
      1 T  30 ZN    3.460051712646E-02 -3.835250159994E-01 -1.348212931369E-01
      2 F  30 ZN    4.653994828735E-01  3.835250159994E-01  3.651787068631E-01
      3 F  30 ZN   -4.653994828735E-01 -1.164749840006E-01  1.348212931369E-01
      4 F  30 ZN   -3.460051712646E-02  1.164749840006E-01 -3.651787068631E-01
      5 F  30 ZN   -3.460051712646E-02  3.835250159994E-01  1.348212931369E-01
      6 F  30 ZN   -4.653994828735E-01 -3.835250159994E-01 -3.651787068631E-01
      7 F  30 ZN    4.653994828735E-01  1.164749840006E-01 -1.348212931369E-01
      8 F  30 ZN    3.460051712646E-02 -1.164749840006E-01  3.651787068631E-01
      9 T  33 AS   -3.591488229029E-01  7.348250739491E-02  4.005070474793E-01
     10 F  33 AS   -1.408511770971E-01 -7.348250739491E-02 -9.949295252072E-02
     11 F  33 AS    1.408511770971E-01  4.265174926051E-01 -4.005070474793E-01
     12 F  33 AS    3.591488229029E-01 -4.265174926051E-01  9.949295252072E-02
     13 F  33 AS    3.591488229029E-01 -7.348250739491E-02 -4.005070474793E-01
     14 F  33 AS    1.408511770971E-01  7.348250739491E-02  9.949295252072E-02
     15 F  33 AS   -1.408511770971E-01 -4.265174926051E-01  4.005070474793E-01
     16 F  33 AS   -3.591488229029E-01  4.265174926051E-01 -9.949295252072E-02

 T = ATOM BELONGING TO THE ASYMMETRIC UNIT

 TOTAL ENERGY(DFT)(AU)( 15) -3.2118393488896E+04     DE (AU)   -9.182E-04

 UPDATED TRUST RADIUS     0.250E+00

 SYMMETRY ALLOWED FORCES  (COORDINATE, FORCE)

    1 -1.6602866E-03    2 -4.0190700E-04    3 -1.2926029E-03    4  5.4421002E-04
    5  6.5407643E-03    6 -6.6468088E-03    7  1.1442704E-02    8  8.4321636E-04
    9 -1.3945316E-03

 GRADIENT NORM     0.015015  GRADIENT THRESHOLD     0.500000

 EIGENVALUES OF THE ESTIMATED HESSIAN
  0.2739E-01  0.3700E-01  0.6865E-01  0.1134      0.1235      0.1821    
  0.2044      0.2976      0.3796    

 PREDICTED ENERGY CHANGE    -0.827E-03

 MAX GRADIENT      0.011443  THRESHOLD              0.000045 CONVERGED NO
 RMS GRADIENT      0.005005  THRESHOLD              0.000030 CONVERGED NO
 MAX DISPLAC.      0.111638  THRESHOLD              0.000180 CONVERGED NO
 RMS DISPLAC.      0.041259  THRESHOLD              0.000120 CONVERGED NO
 TTTTTTTTTTTTTTTTTTTTTTTTTTTTTT OPTI        TELAPSE      419.76 TCPU      413.26
 *******************************************************************************
 COORDINATE AND CELL OPTIMIZATION - POINT    6
 *******************************************************************************
 LATTICE PARAMETERS (ANGSTROMS AND DEGREES) - BOHR = 0.5291772083 ANGSTROM
 PRIMITIVE CELL - CENTRING CODE 1/0 VOLUME=   300.292891 - DENSITY  6.142 g/cm^3
         A              B              C           ALPHA      BETA       GAMMA 
     5.56897407     7.22021202     7.46826818    90.000000  90.000000  90.000000
 *******************************************************************************
 ATOMS IN THE ASYMMETRIC UNIT    2 - ATOMS IN THE UNIT CELL:   16
[...]
 AT.   6 ZN X    -0.0010    0.0225   -0.0146   -0.0263   -0.0171    0.0058
            Y    -0.0238    0.0316   -0.0224   -0.0256    0.0089    0.0015
            Z    -0.0247    0.0040   -0.0142    0.0094    0.0202   -0.0276
 AT.   7 ZN X     0.0010    0.0225    0.0146    0.0263    0.0171    0.0058
            Y    -0.0238   -0.0316   -0.0224   -0.0256    0.0089   -0.0015
            Z     0.0247    0.0040    0.0142   -0.0094   -0.0202   -0.0276
 AT.   8 ZN X    -0.0010    0.0225   -0.0146    0.0263    0.0171    0.0058
            Y     0.0238   -0.0316    0.0224   -0.0256    0.0089   -0.0015
            Z     0.0247   -0.0040    0.0142    0.0094    0.0202    0.0276
 AT.   9 AS X    -0.0178    0.0102    0.0071    0.0043   -0.0012    0.0035
            Y     0.0084   -0.0099    0.0065    0.0074   -0.0076    0.0146
            Z    -0.0119    0.0035   -0.0220    0.0045    0.0230    0.0144
 AT.  10 AS X     0.0178    0.0102   -0.0071    0.0043   -0.0012    0.0035
            Y    -0.0084   -0.0099   -0.0065    0.0074   -0.0076    0.0146
            Z    -0.0119   -0.0035   -0.0220   -0.0045   -0.0230   -0.0144
 AT.  11 AS X    -0.0178    0.0102    0.0071   -0.0043    0.0012    0.0035
            Y    -0.0084    0.0099   -0.0065    0.0074   -0.0076   -0.0146
            Z     0.0119   -0.0035    0.0220    0.0045    0.0230   -0.0144
 AT.  12 AS X     0.0178    0.0102   -0.0071   -0.0043    0.0012    0.0035
            Y     0.0084    0.0099    0.0065    0.0074   -0.0076   -0.0146
            Z     0.0119    0.0035    0.0220   -0.0045   -0.0230    0.0144
 AT.  13 AS X     0.0178   -0.0102    0.0071   -0.0043   -0.0012   -0.0035
            Y    -0.0084    0.0099    0.0065   -0.0074   -0.0076   -0.0146
            Z     0.0119   -0.0035   -0.0220   -0.0045    0.0230   -0.0144
 AT.  14 AS X    -0.0178   -0.0102   -0.0071   -0.0043   -0.0012   -0.0035
            Y     0.0084    0.0099   -0.0065   -0.0074   -0.0076   -0.0146
            Z     0.0119    0.0035   -0.0220    0.0045   -0.0230    0.0144
 AT.  15 AS X     0.0178   -0.0102    0.0071    0.0043    0.0012   -0.0035
            Y     0.0084   -0.0099   -0.0065   -0.0074   -0.0076    0.0146
            Z    -0.0119    0.0035    0.0220   -0.0045    0.0230    0.0144
 AT.  16 AS X    -0.0178   -0.0102   -0.0071    0.0043    0.0012   -0.0035
            Y    -0.0084   -0.0099    0.0065   -0.0074   -0.0076    0.0146
            Z    -0.0119   -0.0035    0.0220    0.0045   -0.0230   -0.0144

 FREQ(CM**-1)    183.84    188.19    189.18    202.53    204.84    213.24

 AT.   1 ZN X     0.0162   -0.0149    0.0010   -0.0016   -0.0218   -0.0170
            Y     0.0160   -0.0005   -0.0087   -0.0254    0.0134   -0.0025
            Z     0.0102    0.0154    0.0313    0.0012   -0.0065   -0.0068
 AT.   2 ZN X     0.0162    0.0149    0.0010    0.0016    0.0218   -0.0170
            Y     0.0160    0.0005   -0.0087    0.0254   -0.0134   -0.0025
            Z    -0.0102    0.0154   -0.0313    0.0012   -0.0065    0.0068
 AT.   3 ZN X     0.0162    0.0149   -0.0010    0.0016    0.0218    0.0170
            Y    -0.0160   -0.0005   -0.0087   -0.0254    0.0134   -0.0025
            Z    -0.0102    0.0154    0.0313    0.0012   -0.0065   -0.0068
 AT.   4 ZN X     0.0162   -0.0149   -0.0010   -0.0016   -0.0218    0.0170
            Y    -0.0160    0.0005   -0.0087    0.0254   -0.0134   -0.0025
            Z     0.0102    0.0154   -0.0313    0.0012   -0.0065    0.0068
 AT.   5 ZN X     0.0162   -0.0149   -0.0010    0.0016   -0.0218   -0.0170
            Y     0.0160   -0.0005    0.0087    0.0254    0.0134   -0.0025
            Z     0.0102    0.0154   -0.0313   -0.0012   -0.0065   -0.0068
 AT.   6 ZN X     0.0162    0.0149   -0.0010   -0.0016    0.0218   -0.0170
            Y     0.0160    0.0005    0.0087   -0.0254   -0.0134   -0.0025
            Z    -0.0102    0.0154    0.0313   -0.0012   -0.0065    0.0068
 AT.   7 ZN X     0.0162    0.0149    0.0010   -0.0016    0.0218    0.0170
            Y    -0.0160   -0.0005    0.0087    0.0254    0.0134   -0.0025
            Z    -0.0102    0.0154   -0.0313   -0.0012   -0.0065   -0.0068
 AT.   8 ZN X     0.0162   -0.0149    0.0010    0.0016   -0.0218    0.0170
            Y    -0.0160    0.0005    0.0087   -0.0254   -0.0134   -0.0025
            Z     0.0102    0.0154    0.0313   -0.0012   -0.0065    0.0068
 AT.   9 AS X    -0.0138    0.0112   -0.0097   -0.0091    0.0132   -0.0202
            Y    -0.0160   -0.0194   -0.0010    0.0188    0.0135    0.0021
            Z    -0.0108   -0.0131   -0.0079    0.0012    0.0055   -0.0154
 AT.  10 AS X    -0.0138   -0.0112   -0.0097    0.0091   -0.0132   -0.0202
            Y    -0.0160    0.0194   -0.0010   -0.0188   -0.0135    0.0021
            Z     0.0108   -0.0131    0.0079    0.0012    0.0055    0.0154
 AT.  11 AS X    -0.0138   -0.0112    0.0097    0.0091   -0.0132    0.0202
            Y     0.0160   -0.0194   -0.0010    0.0188    0.0135    0.0021
            Z     0.0108   -0.0131   -0.0079    0.0012    0.0055   -0.0154
 AT.  12 AS X    -0.0138    0.0112    0.0097   -0.0091    0.0132    0.0202
            Y     0.0160    0.0194   -0.0010   -0.0188   -0.0135    0.0021
            Z    -0.0108   -0.0131    0.0079    0.0012    0.0055    0.0154
 AT.  13 AS X    -0.0138    0.0112    0.0097    0.0091    0.0132   -0.0202
            Y    -0.0160   -0.0194    0.0010   -0.0188    0.0135    0.0021
            Z    -0.0108   -0.0131    0.0079   -0.0012    0.0055   -0.0154
 AT.  14 AS X    -0.0138   -0.0112    0.0097   -0.0091   -0.0132   -0.0202
            Y    -0.0160    0.0194    0.0010    0.0188   -0.0135    0.0021
            Z     0.0108   -0.0131   -0.0079   -0.0012    0.0055    0.0154
 AT.  15 AS X    -0.0138   -0.0112   -0.0097   -0.0091   -0.0132    0.0202
            Y     0.0160   -0.0194    0.0010   -0.0188    0.0135    0.0021
            Z     0.0108   -0.0131    0.0079   -0.0012    0.0055   -0.0154
 AT.  16 AS X    -0.0138    0.0112   -0.0097    0.0091    0.0132    0.0202
            Y     0.0160    0.0194    0.0010    0.0188   -0.0135    0.0021
            Z    -0.0108   -0.0131   -0.0079   -0.0012    0.0055    0.0154

 FREQ(CM**-1)    217.30    228.08    229.40    229.47    240.73    242.24

 AT.   1 ZN X    -0.0000   -0.0078    0.0073    0.0140   -0.0069   -0.0016
            Y    -0.0090    0.0037    0.0088    0.0055    0.0170    0.0013
            Z     0.0098    0.0199    0.0154    0.0134   -0.0114   -0.0195
 AT.   2 ZN X    -0.0000   -0.0078    0.0073   -0.0140    0.0069    0.0016
            Y    -0.0090    0.0037    0.0088   -0.0055   -0.0170   -0.0013
            Z    -0.0098   -0.0199   -0.0154    0.0134   -0.0114   -0.0195
 AT.   3 ZN X     0.0000   -0.0078    0.0073    0.0140    0.0069   -0.0016
            Y    -0.0090   -0.0037   -0.0088   -0.0055    0.0170   -0.0013
            Z     0.0098   -0.0199   -0.0154   -0.0134   -0.0114    0.0195
 AT.   4 ZN X     0.0000   -0.0078    0.0073   -0.0140   -0.0069    0.0016
            Y    -0.0090   -0.0037   -0.0088    0.0055   -0.0170    0.0013
            Z    -0.0098    0.0199    0.0154   -0.0134   -0.0114    0.0195
 AT.   5 ZN X     0.0000    0.0078    0.0073    0.0140    0.0069    0.0016
            Y     0.0090   -0.0037    0.0088    0.0055   -0.0170   -0.0013
            Z    -0.0098   -0.0199    0.0154    0.0134    0.0114    0.0195
 AT.   6 ZN X     0.0000    0.0078    0.0073   -0.0140   -0.0069   -0.0016
            Y     0.0090   -0.0037    0.0088   -0.0055    0.0170    0.0013
            Z     0.0098    0.0199   -0.0154    0.0134    0.0114    0.0195
 AT.   7 ZN X    -0.0000    0.0078    0.0073    0.0140   -0.0069    0.0016
            Y     0.0090    0.0037   -0.0088   -0.0055   -0.0170    0.0013
            Z    -0.0098    0.0199   -0.0154   -0.0134    0.0114   -0.0195
 AT.   8 ZN X    -0.0000    0.0078    0.0073   -0.0140    0.0069   -0.0016
            Y     0.0090    0.0037   -0.0088    0.0055    0.0170   -0.0013
            Z     0.0098   -0.0199    0.0154   -0.0134    0.0114   -0.0195
 AT.   9 AS X     0.0198    0.0038   -0.0062    0.0197   -0.0124   -0.0140
            Y    -0.0067    0.0191    0.0194    0.0007    0.0130   -0.0023
            Z     0.0183    0.0099    0.0121    0.0120    0.0106   -0.0173
 AT.  10 AS X     0.0198    0.0038   -0.0062   -0.0197    0.0124    0.0140
            Y    -0.0067    0.0191    0.0194   -0.0007   -0.0130    0.0023
            Z    -0.0183   -0.0099   -0.0121    0.0120    0.0106   -0.0173
 AT.  11 AS X    -0.0198    0.0038   -0.0062    0.0197    0.0124   -0.0140
            Y    -0.0067   -0.0191   -0.0194   -0.0007    0.0130    0.0023
            Z     0.0183   -0.0099   -0.0121   -0.0120    0.0106    0.0173
 AT.  12 AS X    -0.0198    0.0038   -0.0062   -0.0197   -0.0124    0.0140
            Y    -0.0067   -0.0191   -0.0194    0.0007   -0.0130   -0.0023
            Z    -0.0183    0.0099    0.0121   -0.0120    0.0106    0.0173
 AT.  13 AS X    -0.0198   -0.0038   -0.0062    0.0197    0.0124    0.0140
            Y     0.0067   -0.0191    0.0194    0.0007   -0.0130    0.0023
            Z    -0.0183   -0.0099    0.0121    0.0120   -0.0106    0.0173
 AT.  14 AS X    -0.0198   -0.0038   -0.0062   -0.0197   -0.0124   -0.0140
            Y     0.0067   -0.0191    0.0194   -0.0007    0.0130   -0.0023
            Z     0.0183    0.0099   -0.0121    0.0120   -0.0106    0.0173
 AT.  15 AS X     0.0198   -0.0038   -0.0062    0.0197   -0.0124    0.0140
            Y     0.0067    0.0191   -0.0194   -0.0007   -0.0130   -0.0023
            Z    -0.0183    0.0099   -0.0121   -0.0120   -0.0106   -0.0173
 AT.  16 AS X     0.0198   -0.0038   -0.0062   -0.0197    0.0124   -0.0140
            Y     0.0067    0.0191   -0.0194    0.0007    0.0130    0.0023
            Z     0.0183   -0.0099    0.0121   -0.0120   -0.0106   -0.0173

 FREQ(CM**-1)    247.25    250.46    251.35    262.65    266.88    267.05

 AT.   1 ZN X    -0.0126   -0.0038    0.0017    0.0052    0.0051   -0.0110
            Y     0.0169    0.0063   -0.0175   -0.0194   -0.0143    0.0143
            Z     0.0060    0.0186   -0.0124   -0.0096    0.0013    0.0082
 AT.   2 ZN X    -0.0126    0.0038   -0.0017    0.0052    0.0051    0.0110
            Y     0.0169   -0.0063    0.0175   -0.0194   -0.0143   -0.0143
            Z    -0.0060    0.0186   -0.0124    0.0096   -0.0013    0.0082
 AT.   3 ZN X    -0.0126    0.0038   -0.0017   -0.0052    0.0051   -0.0110
            Y    -0.0169    0.0063   -0.0175   -0.0194    0.0143   -0.0143
            Z    -0.0060    0.0186   -0.0124   -0.0096   -0.0013   -0.0082
 AT.   4 ZN X    -0.0126   -0.0038    0.0017   -0.0052    0.0051    0.0110
            Y    -0.0169   -0.0063    0.0175   -0.0194    0.0143    0.0143
            Z     0.0060    0.0186   -0.0124    0.0096    0.0013   -0.0082
 AT.   5 ZN X    -0.0126    0.0038    0.0017    0.0052   -0.0051   -0.0110
            Y     0.0169   -0.0063   -0.0175   -0.0194    0.0143    0.0143
            Z     0.0060   -0.0186   -0.0124   -0.0096   -0.0013    0.0082
 AT.   6 ZN X    -0.0126   -0.0038   -0.0017    0.0052   -0.0051    0.0110
            Y     0.0169    0.0063    0.0175   -0.0194    0.0143   -0.0143
            Z    -0.0060   -0.0186   -0.0124    0.0096    0.0013    0.0082
 AT.   7 ZN X    -0.0126   -0.0038   -0.0017   -0.0052   -0.0051   -0.0110
            Y    -0.0169   -0.0063   -0.0175   -0.0194   -0.0143   -0.0143
            Z    -0.0060   -0.0186   -0.0124   -0.0096    0.0013   -0.0082
 AT.   8 ZN X    -0.0126    0.0038    0.0017   -0.0052   -0.0051    0.0110
            Y    -0.0169    0.0063    0.0175   -0.0194   -0.0143    0.0143
            Z     0.0060   -0.0186   -0.0124    0.0096   -0.0013   -0.0082
 AT.   9 AS X     0.0107   -0.0175    0.0154   -0.0032   -0.0225   -0.0055
            Y    -0.0111   -0.0018   -0.0073    0.0165    0.0067    0.0189
            Z     0.0129   -0.0122    0.0106    0.0078    0.0013    0.0054
 AT.  10 AS X     0.0107    0.0175   -0.0154   -0.0032   -0.0225    0.0055
            Y    -0.0111    0.0018    0.0073    0.0165    0.0067   -0.0189
            Z    -0.0129   -0.0122    0.0106   -0.0078   -0.0013    0.0054
 AT.  11 AS X     0.0107    0.0175   -0.0154    0.0032   -0.0225   -0.0055
            Y     0.0111   -0.0018   -0.0073    0.0165   -0.0067   -0.0189
            Z    -0.0129   -0.0122    0.0106    0.0078   -0.0013   -0.0054
 AT.  12 AS X     0.0107   -0.0175    0.0154    0.0032   -0.0225    0.0055
            Y     0.0111    0.0018    0.0073    0.0165   -0.0067    0.0189
            Z     0.0129   -0.0122    0.0106   -0.0078    0.0013   -0.0054
 AT.  13 AS X     0.0107    0.0175    0.0154   -0.0032    0.0225   -0.0055
            Y    -0.0111    0.0018   -0.0073    0.0165   -0.0067    0.0189
            Z     0.0129    0.0122    0.0106    0.0078   -0.0013    0.0054
 AT.  14 AS X     0.0107   -0.0175   -0.0154   -0.0032    0.0225    0.0055
            Y    -0.0111   -0.0018    0.0073    0.0165   -0.0067   -0.0189
            Z    -0.0129    0.0122    0.0106   -0.0078    0.0013    0.0054
 AT.  15 AS X     0.0107   -0.0175   -0.0154    0.0032    0.0225   -0.0055
            Y     0.0111    0.0018   -0.0073    0.0165    0.0067   -0.0189
            Z    -0.0129    0.0122    0.0106    0.0078    0.0013   -0.0054
 AT.  16 AS X     0.0107    0.0175    0.0154    0.0032    0.0225    0.0055
            Y     0.0111   -0.0018    0.0073    0.0165    0.0067    0.0189
            Z     0.0129    0.0122    0.0106   -0.0078   -0.0013   -0.0054

 FREQ(CM**-1)    270.36    278.84    285.13    286.82    288.52    289.34

 AT.   1 ZN X     0.0101    0.0035   -0.0041   -0.0060   -0.0019   -0.0022
            Y    -0.0136   -0.0153    0.0085    0.0087    0.0081    0.0075
            Z    -0.0040   -0.0025    0.0025    0.0024    0.0001    0.0001
 AT.   2 ZN X     0.0101   -0.0035    0.0041   -0.0060   -0.0019    0.0022
            Y    -0.0136    0.0153   -0.0085    0.0087    0.0081   -0.0075
            Z     0.0040   -0.0025    0.0025   -0.0024   -0.0001    0.0001
 AT.   3 ZN X    -0.0101    0.0035   -0.0041   -0.0060    0.0019    0.0022
            Y    -0.0136    0.0153   -0.0085   -0.0087    0.0081    0.0075
            Z    -0.0040    0.0025   -0.0025   -0.0024    0.0001    0.0001
 AT.   4 ZN X    -0.0101   -0.0035    0.0041   -0.0060    0.0019   -0.0022
            Y    -0.0136   -0.0153    0.0085   -0.0087    0.0081   -0.0075
            Z     0.0040    0.0025   -0.0025    0.0024   -0.0001    0.0001
 AT.   5 ZN X    -0.0101   -0.0035    0.0041    0.0060    0.0019    0.0022
            Y     0.0136    0.0153   -0.0085   -0.0087   -0.0081   -0.0075
            Z     0.0040    0.0025   -0.0025   -0.0024   -0.0001   -0.0001
 AT.   6 ZN X    -0.0101    0.0035   -0.0041    0.0060    0.0019   -0.0022
            Y     0.0136   -0.0153    0.0085   -0.0087   -0.0081    0.0075
            Z    -0.0040    0.0025   -0.0025    0.0024    0.0001   -0.0001
 AT.   7 ZN X     0.0101   -0.0035    0.0041    0.0060   -0.0019   -0.0022
            Y     0.0136   -0.0153    0.0085    0.0087   -0.0081   -0.0075
            Z     0.0040   -0.0025    0.0025    0.0024   -0.0001   -0.0001
 AT.   8 ZN X     0.0101    0.0035   -0.0041    0.0060   -0.0019    0.0022
            Y     0.0136    0.0153   -0.0085    0.0087   -0.0081    0.0075
            Z    -0.0040   -0.0025    0.0025   -0.0024    0.0001   -0.0001
 AT.   9 AS X    -0.0120    0.0166    0.0109   -0.0087   -0.0138    0.0123
            Y     0.0124   -0.0105    0.0184   -0.0135   -0.0175    0.0154
            Z     0.0137   -0.0109   -0.0129    0.0185    0.0119   -0.0159
 AT.  10 AS X    -0.0120   -0.0166   -0.0109   -0.0087   -0.0138   -0.0123
            Y     0.0124    0.0105   -0.0184   -0.0135   -0.0175   -0.0154
            Z    -0.0137   -0.0109   -0.0129   -0.0185   -0.0119   -0.0159
 AT.  11 AS X     0.0120    0.0166    0.0109   -0.0087    0.0138   -0.0123
            Y     0.0124    0.0105   -0.0184    0.0135   -0.0175    0.0154
            Z     0.0137    0.0109    0.0129   -0.0185    0.0119   -0.0159
 AT.  12 AS X     0.0120   -0.0166   -0.0109   -0.0087    0.0138    0.0123
            Y     0.0124   -0.0105    0.0184    0.0135   -0.0175   -0.0154
            Z    -0.0137    0.0109    0.0129    0.0185   -0.0119   -0.0159
 AT.  13 AS X     0.0120   -0.0166   -0.0109    0.0087    0.0138   -0.0123
            Y    -0.0124    0.0105   -0.0184    0.0135    0.0175   -0.0154
            Z    -0.0137    0.0109    0.0129   -0.0185   -0.0119    0.0159
 AT.  14 AS X     0.0120    0.0166    0.0109    0.0087    0.0138    0.0123
            Y    -0.0124   -0.0105    0.0184    0.0135    0.0175    0.0154
            Z     0.0137    0.0109    0.0129    0.0185    0.0119    0.0159
 AT.  15 AS X    -0.0120   -0.0166   -0.0109    0.0087   -0.0138    0.0123
            Y    -0.0124   -0.0105    0.0184   -0.0135    0.0175   -0.0154
            Z    -0.0137   -0.0109   -0.0129    0.0185   -0.0119    0.0159
 AT.  16 AS X    -0.0120    0.0166    0.0109    0.0087   -0.0138   -0.0123
            Y    -0.0124    0.0105   -0.0184   -0.0135    0.0175    0.0154
            Z     0.0137   -0.0109   -0.0129   -0.0185    0.0119    0.0159

 *******************************************************************************

 VIBRATIONAL TEMPERATURES (K) [MODE NUMBER;IRREP]

 TO MODES
    89.8 [   4;Au ]   101.8 [   5;B3u]   108.4 [   6;Au ]   118.4 [   7;B3g]
   122.7 [   8;B1u]   127.1 [   9;Ag ]   134.8 [  10;B1u]   142.2 [  11;B1g]
   147.6 [  12;B2u]   155.7 [  13;Au ]   157.9 [  14;B2u]   160.8 [  15;B3u]
   170.8 [  16;Ag ]   180.3 [  17;B2g]   185.9 [  18;B1g]   188.3 [  19;Ag ]
   191.0 [  20;B2g]   212.5 [  21;Au ]   219.0 [  22;B3g]   231.0 [  23;B3u]
   259.6 [  24;B2g]   264.5 [  25;B2u]   270.8 [  26;B1u]   272.2 [  27;B3g]
   291.4 [  28;B1g]   294.7 [  29;B1u]   306.8 [  30;B3u]   312.7 [  31;B3g]
   328.2 [  32;B2g]   330.1 [  33;B2u]   330.2 [  34;Au ]   346.4 [  35;B1g]
   348.5 [  36;Ag ]   355.7 [  37;B2u]   360.4 [  38;B1g]   361.6 [  39;B1u]
   377.9 [  40;B3u]   384.0 [  41;B2g]   384.2 [  42;Au ]   389.0 [  43;B3g]
   401.2 [  44;Ag ]   410.2 [  45;Ag ]   412.7 [  46;B2g]   415.1 [  47;B3g]
   416.3 [  48;B1g]

 *******************************************************************************

 HARMONIC VIBRATIONAL CONTRIBUTIONS TO THERMODYNAMIC FUNCTIONS AT GIVEN
 TEMPERATURE AND PRESSURE:

 (EL = ELECTRONIC ENERGY
  E0 = ZERO-POINT ENERGY
  ET = THERMAL CONTRIBUTION TO THE VIBRATIONAL ENERGY
  PV = PRESSURE * VOLUME
  TS = TEMPERATURE * ENTROPY)

                          AU/CELL             EV/CELL                 KJ/MOL
 EL            :  -32118.395182239583 -873985.965496634133   -84326834.66716380
 E0            :       0.018637220522       0.507144553146          48.93201559


 *******************************************************************************

 THERMODYNAMIC FUNCTIONS WITH VIBRATIONAL CONTRIBUTIONS

 AT (T =  298.15 K, P =   0.10132500E+00 MPA):

                          AU/CELL             EV/CELL                 KJ/MOL
 ET            :       0.026937835140       0.733015759970          70.72527619
 PV            :       0.000006985721       0.000190091119           0.01834101
 TS            :       0.053507632087       1.456016691553         140.48426825
 ET+PV-TS      :      -0.026562811226      -0.722810840464         -69.74065105
 EL+E0+ET+PV-TS:  -32118.403107830287 -873986.181162921479   -84326855.47579926

 OTHER THERMODYNAMIC FUNCTIONS:

                      mHARTREE/(CELL*K)     mEV/(CELL*K)              J/(MOL*K)
 ENTROPY       :       0.179465477402       4.883503912638         471.18654452
 HEAT CAPACITY :       0.132584101686       3.607796823729         348.09950992

 *******************************************************************************
 TTTTTTTTTTTTTTTTTTTTTTTTTTTTTT END         TELAPSE     6499.54 TCPU     6429.27
 EEEEEEEEEE TERMINATION  DATE 05 09 2023 TIME 18:16:43.6
