         256 PROCESSORS WORKING

         
 *******************************************************************************
 *                                                                             *
 *                               CRYSTAL23                                     *
 *                      public : 1.0.1 - October 2022                          *
 *                       HTTP://WWW.CRYSTAL.UNITO.IT                           *
 *                                                                             *
 *                              MAIN AUTHORS                                   *
 *                                                                             *
 *  R. DOVESI(1,11), V.R. SAUNDERS(2), C. ROETTI(1,11), R. ORLANDO(1,11),      *
 *  C.M. ZICOVICH-WILSON(1,3), F. PASCALE(4), B. CIVALLERI(1,11),              *
 *  K. DOLL(5), N.M. HARRISON(6), I.J. BUSH(7), Ph. D'ARCO(8),                 *
 *  M. LLUNELL(9), M. CAUSA'(10), Y. NOEL(8), L. MASCHIO(1,11), A. ERBA(1,11)  *
 *  M. RE'RAT(14), S. CASASSA(1,11), B.G. SEARLE(2), J.K. DESMARAIS(1)         *
 *                                                                             *
 *        CONTRIBUTIONS TO THE CODE HAVE ALSO BEEN GIVEN BY                    *
 *                                                                             *
 *  M. FERRABONE(1,11), M. DE LA PIERRE(1,11), M. FERRERO(1,11),               *
 *  J. BAIMA(1,11), E. ALBANESE(1,11), M.F. PEINTINGER(12), R. BAST(13),       *
 *  B. KIRTMAN(15), V. LACIVITA(1,11), R. DEMICHELIS(1,16)                     *
 *  G. BRANDEBURG(17), S. SALUSTRO(1,11), G. SANSONE(1,11)                     *
 *  M.T. RUGGIERO(18), L.E. DAGA(1), L. DONA'(1), A. COSSARD(1)                *
 *                                                                             *
 * (1) THEORETICAL CHEMISTRY GROUP - UNIVERSITA' DI TORINO - TORINO (ITALY)    *
 * (2) SCIENTIFIC COMPUTING DEPARTMENT - STFC DARESBURY (UK)                   *
 * (3) UNIVERSIDAD AUTONOMA DEL ESTADO DE MORELOS - CUERNAVACA (MEXICO)        *
 * (4) UNIVERSITE' DE LORRAINE - NANCY (FRANCE)                                *
 * (5) UNIVERSITAET STUTTGART- STUTTGART (GERMANY)                             *
 * (6) IMPERIAL COLLEGE - LONDON (UK)                                          *
 * (7) SCIENTIFIC COMPUTING DEPARTMENT - STFC RAL (UK)                         *
 * (8) UPMC - SORBONNE UNIVERSITES - PARIS (FRANCE)                            *
 * (9) UNIVERSIDAD DE BARCELONA - BARCELONA (SPAIN)                            *
 *(10) UNIVERSITA' DI NAPOLI "FEDERICO II" - NAPOLI (ITALY)                    *
 *(11) NIS - NANOSTRUCTURED INTERFACES AND SURFACES - TORINO (ITALY)           *
 *(12) MPI FUER CHEMISCHE ENERGIEKONVERSION - MUELHEIM AN DER RUHR (GERMANY)   *
 *(13) UNIVERSITY OF TROMSO - TROMSO (NORWAY)                                  *
 *(14) UNIVERSITE' DE PAU ET DES PAYS DE L'ADOUR - PAU (FRANCE)                *
 *(15) UNIVERSITY OF CALIFORNIA SANTA BARBARA - SANTA BARBARA (USA)            *
 *(16) CURTIN UNIVERSITY - PERTH (AUSTRALIA)                                   *
 *(17) UNIVERSITY COLLEGE LONDON - LONDON (UK)                                 *
 *(18) UNIVERSITY OF VERMONT - BURLINGTON (USA)                                *
 *                                                                             *
 *******************************************************************************
 EEEEEEEEEE STARTING  DATE 29 05 2023 TIME 23:57:39.6
 ICSD_CollCode24161.cif                                                          
 filename=fort.34                        0           0

 GEOMETRY INPUT FROM EXTERNAL FILE (FORTRAN UNIT 34)
 3D - CRYSTAL 

 *******************************************************************************
 LATTICE PARAMETERS  (ANGSTROMS AND DEGREES) - PRIMITIVE CELL
       A          B          C        ALPHA      BETA     GAMMA        VOLUME
    5.99369    5.97265    5.97605    90.00000  67.47060  90.00000    197.605266

 NUMBER OF IRREDUCIBLE ATOMS IN THE CELL:    3

 CARTESIAN COORDINATES (ANGSTROM) - IRREDUCIBLE ATOMS AND SYMMETRY RELATED

 AT.IRR.  AT  AT.N.          X                   Y                   Z
     1     1    26   -2.238583555262E+00  2.904682970073E+00 -1.088662123219E+00
     1     2    26    1.101660480363E+00 -8.163988766500E-02 -1.674616430406E+00
     1     3    26    2.238583555262E+00 -2.904682970073E+00  1.088662123219E+00
     1     4    26   -1.101660480363E+00  8.163988766500E-02  1.674616430406E+00
     5     5   251    4.333952179100E-02  2.202304060363E+00 -2.044790269196E+00
     5     6   251   -1.180262596690E+00 -7.840187973760E-01 -7.184882844290E-01
     5     7   251   -4.333952179100E-02 -2.202304060363E+00  2.044790269196E+00
     5     8   251    1.180262596690E+00  7.840187973760E-01  7.184882844290E-01
     9     9    16   -1.735298165600E+00  2.197084383500E+00  9.616947686070E-01
     9    10    16    2.872221240499E+00 -7.892384742380E-01  1.801583785017E+00
     9    11    16    1.735298165600E+00 -2.197084383500E+00 -9.616947686070E-01
     9    12    16   -2.872221240499E+00  7.892384742380E-01 -1.801583785017E+00

 SPACE  GROUP  N.                     :    0
 NUMBER OF SYMMETRY OPERATORS         :    4
 *******************************************************************************
 LATTICE PARAMETERS (ANGSTROMS AND DEGREES) - BOHR = 0.5291772083 ANGSTROM
 PRIMITIVE CELL - CENTRING CODE 1/0 VOLUME=   197.605266 - DENSITY  7.019 g/cm^3
         A              B              C           ALPHA      BETA       GAMMA 
     5.99369083     5.97264572     5.97605303    90.000000  67.470603  90.000000
 *******************************************************************************
 ATOMS IN THE ASYMMETRIC UNIT    3 - ATOMS IN THE UNIT CELL:   12
     ATOM                 X/A                 Y/B                 Z/C    
 *******************************************************************************
      1 T  26 FE   -2.991142666879E-01  4.863310345940E-01 -1.960522124871E-01
      2 F  26 FE    2.991142666881E-01 -1.366896540563E-02 -3.039477875129E-01
      3 F  26 FE    2.991142666879E-01 -4.863310345940E-01  1.960522124871E-01
      4 F  26 FE   -2.991142666881E-01  1.366896540563E-02  3.039477875129E-01
      5 T 251 SB    1.477723990950E-01  3.687317422252E-01 -3.704555256767E-01
      6 F 251 SB   -1.477723990948E-01 -1.312682577746E-01 -1.295444743233E-01
      7 F 251 SB   -1.477723990950E-01 -3.687317422252E-01  3.704555256767E-01
      8 F 251 SB    1.477723990948E-01  1.312682577746E-01  1.295444743233E-01
      9 T  16 S    -3.559605107441E-01  3.678578117911E-01  1.751262797225E-01
     10 F  16 S     3.559605107440E-01 -1.321421882086E-01  3.248737202773E-01
     11 F  16 S     3.559605107441E-01 -3.678578117911E-01 -1.751262797225E-01
     12 F  16 S    -3.559605107440E-01  1.321421882086E-01 -3.248737202773E-01

 T = ATOM BELONGING TO THE ASYMMETRIC UNIT
 *******************************************************************************
 * GEOMETRY EDITING - INPUT COORDINATES ARE GIVEN IN ANGSTROM         
 *******************************************************************************

 GEOMETRY NOW FULLY CONSISTENT WITH THE GROUP

 FRQFRQFRQFRQFRQFRQFRQFRQFRQFRQFRQFRQFRQFRQFRQFRQFRQFRQFRQFRQFRQFRQFRQFRQFRQFRQ

                       FREQUENCY CALCULATION

 OPTIMIZATION PERFORMED BEFORE FREQUENCIES CALCULATION
 *******************************************************************************
 INFORMATION **** NEW DEFAULT **** FINALRUN 4 FOR GEOMETRY OPTIMIZATIONS
 INFORMATION **** NEW DEFAULT **** OPTGEOM OPTIMIZES ATOMIC COORDINATES ONLY
 INFORMATION **** NEW DEFAULT **** TOL. ON ATOMIC DISP TO REDEFINE REF. GEOMETRY: 0.8 Angs
 INFORMATION **** NEW DEFAULT **** N POINTS TO REDEFINE REF. GEOMETRY: N OF OPT DEGS OF FREEDOM
 INFORMATION **** NEW DEFAULT **** TOL. ON ENERGY TO REDEFINE REF. GEOMETRY: 10**-3*(5*N. ATOMS)
 INFORMATION **** FULLOPTG **** FULL OPTIMIZATION (ATOMS AND CELL PARAMETERS)

 IMPORTANT INFORMATION:
 THE COORDINATE SYSTEM ADOPTED IN THE OPTIMIZATION IS NOT IN
 GENERAL HOMOGENEOUS UNITS. FOR THIS REASON THE GRADIENT AND 
 HESSIAN MATRIX IN TERMS OF THIS SYSTEM ARE GIVEN WITHOUT
 UNITS. FOR MORE DETAILS SEE THE MANUAL.

 *******************************************************************************
 COMBINED CELL/ATOM OPTIMIZATION CONTROL

 INITIAL TRUST RADIUS         0.50000 MAXIMUM TRUST RADIUS               0.50000
 MAXIMUM GRADIENT COMPONENT   0.00005 MAXIMUM DISPLACEMENT COMPONENT     0.00018
 R.M.S. OF GRADIENT COMPONENT 0.00003 R.M.S. OF DISPLACEMENT COMPONENTS  0.00012
 THRESHOLD ON ENERGY CHANGE 0.100E-06 EXTRAPOLATING POLYNOMIAL ORDER           2
 MAXIMUM ALLOWED NUMBER OF STEPS   -1 SORTING OF ENERGY POINTS:               NO
 ANALYTICAL  GRADIENT                 HESSIAN UPDATING                      BFGS
 STEP SIZE NUMERICAL GRADIENT 0.00100
 INITIAL HESSIAN MATRIX: SCHLEGEL MODEL 2
 *******************************************************************************

 INFORMATION **** INPFREQ **** IR INTENSITIES EVALUATED THROUGH CPHF APPROACH
 INFORMATION **** INPFREQ **** NEW DEFAULT - IMPOSING ECKART CONDITIONS TO THE HESSIAN

 GCALCO - MAX INDICES DIRECT LATTICE VECTOR    15    14    15
 NO.OF VECTORS CREATED 6999 STARS 1869 RMAX   130.75752 BOHR

 GEOMETRY FOR WAVE FUNCTION - DIMENSIONALITY OF THE SYSTEM    3
 (NON PERIODIC DIRECTION: LATTICE PARAMETER FORMALLY SET TO 500)
 *******************************************************************************
 LATTICE PARAMETERS (ANGSTROMS AND DEGREES) - BOHR = 0.5291772083 ANGSTROM
 PRIMITIVE CELL - CENTRING CODE 1/0 VOLUME=   197.605266 - DENSITY  7.019 g/cm^3
         A              B              C           ALPHA      BETA       GAMMA 
     5.99369083     5.97264572     5.97605303    90.000000  67.470603  90.000000
 *******************************************************************************
 ATOMS IN THE ASYMMETRIC UNIT    3 - ATOMS IN THE UNIT CELL:   12
     ATOM                 X/A                 Y/B                 Z/C    
 *******************************************************************************
      1 T  26 FE   -2.991142666879E-01  4.863310345940E-01 -1.960522124871E-01
      2 F  26 FE    2.991142666883E-01 -1.366896540597E-02 -3.039477875138E-01
      3 F  26 FE    2.991142666879E-01 -4.863310345940E-01  1.960522124871E-01
      4 F  26 FE   -2.991142666876E-01  1.366896540597E-02  3.039477875120E-01
      5 T 251 SB    1.477723990950E-01  3.687317422252E-01 -3.704555256767E-01
      6 F 251 SB   -1.477723990946E-01 -1.312682577748E-01 -1.295444743242E-01
      7 F 251 SB   -1.477723990950E-01 -3.687317422252E-01  3.704555256767E-01
      8 F 251 SB    1.477723990953E-01  1.312682577748E-01  1.295444743224E-01
      9 T  16 S    -3.559605107441E-01  3.678578117911E-01  1.751262797225E-01
     10 F  16 S     3.559605107445E-01 -1.321421882089E-01  3.248737202766E-01
     11 F  16 S     3.559605107441E-01 -3.678578117911E-01 -1.751262797225E-01
     12 F  16 S    -3.559605107438E-01  1.321421882089E-01 -3.248737202784E-01

 T = ATOM BELONGING TO THE ASYMMETRIC UNIT

 ****    4 SYMMOPS - TRANSLATORS IN FRACTIONAL UNITS
 **** MATRICES AND TRANSLATORS IN THE CRYSTALLOGRAPHIC REFERENCE FRAME
   V INV                    ROTATION MATRICES                   TRANSLATORS
   1   1  1.00  0.00  0.00  0.00  1.00  0.00  0.00  0.00  1.00  0.00  0.00  0.00
   2   2 -1.00 -0.00  0.00  0.00  1.00  0.00  0.00 -0.00 -1.00  0.00  0.50  0.50
   3   3 -1.00 -0.00  0.00  0.00 -1.00  0.00  0.00 -0.00 -1.00  0.00  0.00  0.00
   4   4  1.00  0.00 -0.00 -0.00 -1.00 -0.00 -0.00  0.00  1.00  0.00  0.50  0.50

 DIRECT LATTICE VECTORS CARTESIAN COMPONENTS (ANGSTROM)
          X                    Y                    Z
   0.599366592102E+01   0.374109475538E-15   0.172789314380E-01
   0.274085945911E-17   0.597264571548E+01   0.102673336158E-17
   0.227384614980E+01   0.373316156627E-15   0.552655710725E+01


 CARTESIAN COORDINATES - PRIMITIVE CELL
 *******************************************************************************
 *      ATOM          X(ANGSTROM)         Y(ANGSTROM)         Z(ANGSTROM)
 *******************************************************************************
    1    26 FE   -2.238583555262E+00  2.904682970073E+00 -1.088662123219E+00
    2    26 FE    1.101660480362E+00 -8.163988766700E-02 -1.674616430411E+00
    3    26 FE    2.238583555262E+00 -2.904682970073E+00  1.088662123219E+00
    4    26 FE   -1.101660480362E+00  8.163988766700E-02  1.674616430401E+00
    5   251 SB    4.333952179100E-02  2.202304060363E+00 -2.044790269196E+00
    6   251 SB   -1.180262596691E+00 -7.840187973770E-01 -7.184882844340E-01
    7   251 SB   -4.333952179100E-02 -2.202304060363E+00  2.044790269196E+00
    8   251 SB    1.180262596691E+00  7.840187973770E-01  7.184882844240E-01
    9    16 S    -1.735298165600E+00  2.197084383500E+00  9.616947686070E-01
   10    16 S     2.872221240500E+00 -7.892384742400E-01  1.801583785013E+00
   11    16 S     1.735298165600E+00 -2.197084383500E+00 -9.616947686070E-01
   12    16 S    -2.872221240500E+00  7.892384742400E-01 -1.801583785023E+00

 *******************************************************************************
 *** PSEUDOPOTENTIAL INFORMATION ***
 *******************************************************************************

 ATOMIC NUMBER  51, NUCLEAR CHARGE 23.000, GIVEN IN INPUT       PSEUDOPOTENTIAL
   TYPE       EXPONENT      COEFF.    N      EXPONENT      COEFF.    N
  P0 TMS    16.3308650  281.0715810   0     8.5565420   61.7166040   0
  P1 TMS    14.4703370   67.4573800   0    13.8161940  134.9335030   0
             8.4249240   14.7163440   0     8.0927280   29.5185120   0
  P2 TMS    14.8863310   35.4478150   0    15.1463190   53.1434660   0
             5.9082670    9.1792230   0     5.5943220   13.2402530   0
  P3 TMS    14.4449780  -15.3668010   0    14.4492950  -20.2961380   0

 *******************************************************************************
 LOCAL ATOMIC FUNCTIONS BASIS SET
 *******************************************************************************
   ATOM   X(AU)   Y(AU)   Z(AU)  N. TYPE  EXPONENT  S COEF   P COEF   D/F/G COEF
 *******************************************************************************
   1 FE  -4.230   5.489  -2.057
                                  1 S  
                                         3.008E+05 2.281E-04 0.000E+00 0.000E+00
                                         4.509E+04 1.768E-03 0.000E+00 0.000E+00
                                         1.026E+04 9.193E-03 0.000E+00 0.000E+00
                                         2.905E+03 3.736E-02 0.000E+00 0.000E+00
                                         9.461E+02 1.215E-01 0.000E+00 0.000E+00
                                         3.399E+02 2.882E-01 0.000E+00 0.000E+00
                                         1.319E+02 4.113E-01 0.000E+00 0.000E+00
                                         5.211E+01 2.152E-01 0.000E+00 0.000E+00
                                  2 S  
                                         3.295E+02-2.475E-02 0.000E+00 0.000E+00
                                         1.019E+02-1.168E-01 0.000E+00 0.000E+00
                                         1.624E+01 5.529E-01 0.000E+00 0.000E+00
                                         6.884E+00 5.360E-01 0.000E+00 0.000E+00
                                  3 S  
                                         1.047E+01-2.291E-01 0.000E+00 0.000E+00
                                         1.736E+00 7.116E-01 0.000E+00 0.000E+00
                                  4 S  
                                         1.257E+00 1.000E+00 0.000E+00 0.000E+00
                                  5 S  
                                         5.755E-01 1.000E+00 0.000E+00 0.000E+00
                                  6 S  
                                         1.559E-01 1.000E+00 0.000E+00 0.000E+00
                           7-     9 P  
                                         1.585E+03 0.000E+00 2.379E-03 0.000E+00
                                         3.754E+02 0.000E+00 1.925E-02 0.000E+00
                                         1.203E+02 0.000E+00 9.002E-02 0.000E+00
                                         4.479E+01 0.000E+00 2.580E-01 0.000E+00
                                         1.783E+01 0.000E+00 4.149E-01 0.000E+00
                                         7.225E+00 0.000E+00 2.421E-01 0.000E+00
                          10-    12 P  
                                         2.814E+01 0.000E+00-2.904E-02 0.000E+00
                                         3.874E+00 0.000E+00 5.531E-01 0.000E+00
                                         1.541E+00 0.000E+00 9.677E-01 0.000E+00
                          13-    15 P  
                                         6.337E-01 0.000E+00 1.000E+00 0.000E+00
                          16-    18 P  
                                         2.000E-01 0.000E+00 1.000E+00 0.000E+00
                          19-    23 D  
                                         6.200E+01 0.000E+00 0.000E+00 1.197E-02
                                         1.787E+01 0.000E+00 0.000E+00 7.321E-02
                                         6.274E+00 0.000E+00 0.000E+00 2.310E-01
                                         2.355E+00 0.000E+00 0.000E+00 3.991E-01
                          24-    28 D  
                                         8.417E-01 0.000E+00 0.000E+00 1.000E+00
                          29-    33 D  
                                         2.611E-01 0.000E+00 0.000E+00 1.000E+00
                          34-    40 F  
                                         1.198E+00 0.000E+00 0.000E+00 1.000E+00
   2 FE   2.082  -0.154  -3.165
   3 FE   4.230  -5.489   2.057
   4 FE  -2.082   0.154   3.165
   5 SB   0.082   4.162  -3.864
                                161 S  
                                         1.612E+03 2.854E-04 0.000E+00 0.000E+00
                                         2.388E+02 1.339E-03 0.000E+00 0.000E+00
                                         2.400E+01-4.939E-02 0.000E+00 0.000E+00
                                         1.519E+01 4.339E-01 0.000E+00 0.000E+00
                                162 S  
                                         1.174E+01 9.213E-01 0.000E+00 0.000E+00
                                         6.526E+00 7.924E-01 0.000E+00 0.000E+00
                                163 S  
                                         1.583E+00 1.000E+00 0.000E+00 0.000E+00
                                164 S  
                                         1.835E-01 1.000E+00 0.000E+00 0.000E+00
                         165-   167 P  
                                         2.157E+02 0.000E+00 2.605E-04 0.000E+00
                                         1.637E+01 0.000E+00 7.373E-02 0.000E+00
                                         9.722E+00 0.000E+00-2.723E-01 0.000E+00
                         168-   170 P  
                                         2.798E+00 0.000E+00 4.647E-01 0.000E+00
                                         1.471E+00 0.000E+00 5.036E-01 0.000E+00
                                         7.517E-01 0.000E+00 1.871E-01 0.000E+00
                         171-   173 P  
                                         3.721E-01 0.000E+00 1.000E+00 0.000E+00
                         174-   176 P  
                                         1.200E-01 0.000E+00 1.000E+00 0.000E+00
                         177-   181 D  
                                         1.159E+02 0.000E+00 0.000E+00 5.314E-04
                                         3.047E+01 0.000E+00 0.000E+00 5.941E-03
                                         1.823E+01 0.000E+00 0.000E+00-1.056E-02
                                         4.329E+00 0.000E+00 0.000E+00 2.035E-01
                                         2.129E+00 0.000E+00 0.000E+00 4.275E-01
                                         9.968E-01 0.000E+00 0.000E+00 3.854E-01
                         182-   186 D  
                                         6.237E-01 0.000E+00 0.000E+00 1.000E+00
                         187-   191 D  
                                         3.122E-01 0.000E+00 0.000E+00 1.000E+00
                         192-   196 D  
                                         1.200E-01 0.000E+00 0.000E+00 1.000E+00
   6 SB  -2.230  -1.482  -1.358
   7 SB  -0.082  -4.162   3.864
   8 SB   2.230   1.482   1.358
   9 S   -3.279   4.152   1.817
                                305 S  
                                         6.070E+04 5.470E-04 0.000E+00 0.000E+00
                                         9.103E+03 4.230E-03 0.000E+00 0.000E+00
                                         2.071E+03 2.175E-02 0.000E+00 0.000E+00
                                         5.860E+02 8.510E-02 0.000E+00 0.000E+00
                                         1.906E+02 2.480E-01 0.000E+00 0.000E+00
                                         6.763E+01 4.670E-01 0.000E+00 0.000E+00
                                         2.513E+01 3.643E-01 0.000E+00 0.000E+00
                                306 S  
                                         1.126E+02 2.167E-02 0.000E+00 0.000E+00
                                         3.480E+01 9.360E-02 0.000E+00 0.000E+00
                                         6.512E+00-2.607E-01 0.000E+00 0.000E+00
                                307 S  
                                         3.240E+00 1.284E+00 0.000E+00 0.000E+00
                                         1.548E+00 6.604E-01 0.000E+00 0.000E+00
                                308 S  
                                         4.487E-01 1.000E+00 0.000E+00 0.000E+00
                                309 S  
                                         1.553E-01 1.000E+00 0.000E+00 0.000E+00
                         310-   312 P  
                                         5.644E+02 0.000E+00 2.480E-03 0.000E+00
                                         1.334E+02 0.000E+00 1.968E-02 0.000E+00
                                         4.247E+01 0.000E+00 8.998E-02 0.000E+00
                                         1.562E+01 0.000E+00 2.571E-01 0.000E+00
                                         6.109E+00 0.000E+00 4.352E-01 0.000E+00
                         313-   315 P  
                                         2.036E+00 0.000E+00 1.000E+00 0.000E+00
                         316-   318 P  
                                         4.338E-01 0.000E+00 1.000E+00 0.000E+00
                         319-   321 P  
                                         1.305E-01 0.000E+00 1.000E+00 0.000E+00
                         322-   326 D  
                                         4.107E-01 0.000E+00 0.000E+00 1.000E+00
  10 S    5.428  -1.491   3.404
  11 S    3.279  -4.152  -1.817
  12 S   -5.428   1.491  -3.404
 INFORMATION **** SET_MPP **** PCRYSTAL CALCULATION
 INFORMATION **** READM2 **** NEW DEFAULT: FOCK/KS MATRIX MIXING SET TO 30 %
 INFORMATION **** READM2 **** NEW DEFAULT: FULL DIRECT SCF MODE
 INFORMATION **** READM2 **** NEW DEFAULT: COULOMB BIPOLAR BUFFER SET TO 32 Mb
 INFORMATION **** READM2 **** NEW DEFAULT: EXCHANGE BIPOLAR BUFFER SET TO 32 Mb

 *******************************************************************************
 NEW DEFAULT: DFT INTEGRATION GRID INCREASED TO XLGRID
 NEW DEFAULT: DIIS ACCELERATOR ACTIVE
 USE KEYWORD NODIIS TO TURN IT OFF
 *******************************************************************************

 INFORMATION **** RDDFTP **** MAX N. OF POINTS ALLOWED IN A BATCH FOR NUMERICAL INTEGRATION         200
 INFORMATION **** TOLINTEG **** COULOMB AND EXCHANGE SERIES TOLERANCES MODIFIED
 INFORMATION **** TOLDEE **** SCF TOL ON TOTAL ENERGY SET TO          11
 INFORMATION **** EXCHSIZE **** EXCHANGE BIPOLAR BUFFER SIZE SET TO    12012489
 INFORMATION **** MAXCYCLE **** MAX NUMBER OF SCF CYCLES SET TO         150
 *******************************************************************************
 N. OF ATOMS PER CELL        12  COULOMB OVERLAP TOL         (T1) 10**   -7
 NUMBER OF SHELLS           144  COULOMB PENETRATION TOL     (T2) 10**   -7
 NUMBER OF AO               392  EXCHANGE OVERLAP TOL        (T3) 10**   -7
 N. OF ELECTRONS PER CELL   260  EXCHANGE PSEUDO OVP (F(G))  (T4) 10**   -9
 CORE ELECTRONS PER CELL    112  EXCHANGE PSEUDO OVP (P(G))  (T5) 10**  -30
 N. OF SYMMETRY OPERATORS     4  POLE ORDER IN MONO ZONE                  4
 *******************************************************************************
 TYPE OF CALCULATION :  UNRESTRICTED OPEN SHELL
 KOHN-SHAM HAMILTONIAN

 (EXCHANGE)[CORRELATION] FUNCTIONAL:(PERDEW-BURKE-ERNZERHOF)[PERDEW-BURKE-ERNZERHOF]


 HYBRID EXCHANGE - PERCENTAGE OF FOCK EXCHANGE    25.0000

 SPIN POLARIZED DFT SELECTED
 CORE  PSEUDO POTENTIAL         TOL. ON PSEUDO              (TP) 10**- 6

 CAPPA:IS1  8;IS2  8;IS3  8; K PTS MONK NET 170; SYMMOPS:K SPACE   4;G SPACE   4

 *******************************************************************************
 MAX NUMBER OF SCF CYCLES     150  CONVERGENCE ON DELTAP        10**-21
 WEIGHT OF F(I) IN F(I+1)      30% CONVERGENCE ON ENERGY        10**-11
 SHRINK. FACT.(MONKH.)    8  8  8  NUMBER OF K POINTS IN THE IBZ    170
 SHRINKING FACTOR(GILAT NET)    8  NUMBER OF K POINTS(GILAT NET)    170
 *******************************************************************************
 *** K POINTS COORDINATES (OBLIQUE COORDINATES IN UNITS OF IS =  8)
   1-R(  0  0  0)   2-C(  1  0  0)   3-C(  2  0  0)   4-C(  3  0  0)
   5-R(  4  0  0)   6-C(  0  1  0)   7-C(  1  1  0)   8-C(  2  1  0)
   9-C(  3  1  0)  10-C(  4  1  0)  11-C(  0  2  0)  12-C(  1  2  0)
  13-C(  2  2  0)  14-C(  3  2  0)  15-C(  4  2  0)  16-C(  0  3  0)
  17-C(  1  3  0)  18-C(  2  3  0)  19-C(  3  3  0)  20-C(  4  3  0)
  21-R(  0  4  0)  22-C(  1  4  0)  23-C(  2  4  0)  24-C(  3  4  0)
  25-R(  4  4  0)  26-C(  0  0  1)  27-C(  1  0  1)  28-C(  2  0  1)
  29-C(  3  0  1)  30-C(  4  0  1)  31-C(  5  0  1)  32-C(  6  0  1)
  33-C(  7  0  1)  34-C(  0  1  1)  35-C(  1  1  1)  36-C(  2  1  1)
  37-C(  3  1  1)  38-C(  4  1  1)  39-C(  5  1  1)  40-C(  6  1  1)
  41-C(  7  1  1)  42-C(  0  2  1)  43-C(  1  2  1)  44-C(  2  2  1)
  45-C(  3  2  1)  46-C(  4  2  1)  47-C(  5  2  1)  48-C(  6  2  1)
  49-C(  7  2  1)  50-C(  0  3  1)  51-C(  1  3  1)  52-C(  2  3  1)
  53-C(  3  3  1)  54-C(  4  3  1)  55-C(  5  3  1)  56-C(  6  3  1)
  57-C(  7  3  1)  58-C(  0  4  1)  59-C(  1  4  1)  60-C(  2  4  1)
  61-C(  3  4  1)  62-C(  4  4  1)  63-C(  5  4  1)  64-C(  6  4  1)
  65-C(  7  4  1)  66-C(  0  0  2)  67-C(  1  0  2)  68-C(  2  0  2)
  69-C(  3  0  2)  70-C(  4  0  2)  71-C(  5  0  2)  72-C(  6  0  2)
  73-C(  7  0  2)  74-C(  0  1  2)  75-C(  1  1  2)  76-C(  2  1  2)
  77-C(  3  1  2)  78-C(  4  1  2)  79-C(  5  1  2)  80-C(  6  1  2)
  81-C(  7  1  2)  82-C(  0  2  2)  83-C(  1  2  2)  84-C(  2  2  2)
  85-C(  3  2  2)  86-C(  4  2  2)  87-C(  5  2  2)  88-C(  6  2  2)
  89-C(  7  2  2)  90-C(  0  3  2)  91-C(  1  3  2)  92-C(  2  3  2)
  93-C(  3  3  2)  94-C(  4  3  2)  95-C(  5  3  2)  96-C(  6  3  2)
  97-C(  7  3  2)  98-C(  0  4  2)  99-C(  1  4  2) 100-C(  2  4  2)
 101-C(  3  4  2) 102-C(  4  4  2) 103-C(  5  4  2) 104-C(  6  4  2)
 105-C(  7  4  2) 106-C(  0  0  3) 107-C(  1  0  3) 108-C(  2  0  3)
 109-C(  3  0  3) 110-C(  4  0  3) 111-C(  5  0  3) 112-C(  6  0  3)
 113-C(  7  0  3) 114-C(  0  1  3) 115-C(  1  1  3) 116-C(  2  1  3)
 117-C(  3  1  3) 118-C(  4  1  3) 119-C(  5  1  3) 120-C(  6  1  3)
 121-C(  7  1  3) 122-C(  0  2  3) 123-C(  1  2  3) 124-C(  2  2  3)
 125-C(  3  2  3) 126-C(  4  2  3) 127-C(  5  2  3) 128-C(  6  2  3)
 129-C(  7  2  3) 130-C(  0  3  3) 131-C(  1  3  3) 132-C(  2  3  3)
 133-C(  3  3  3) 134-C(  4  3  3) 135-C(  5  3  3) 136-C(  6  3  3)
 137-C(  7  3  3) 138-C(  0  4  3) 139-C(  1  4  3) 140-C(  2  4  3)
 141-C(  3  4  3) 142-C(  4  4  3) 143-C(  5  4  3) 144-C(  6  4  3)
 145-C(  7  4  3) 146-R(  0  0  4) 147-C(  1  0  4) 148-C(  2  0  4)
 149-C(  3  0  4) 150-R(  4  0  4) 151-C(  0  1  4) 152-C(  1  1  4)
 153-C(  2  1  4) 154-C(  3  1  4) 155-C(  4  1  4) 156-C(  0  2  4)
 157-C(  1  2  4) 158-C(  2  2  4) 159-C(  3  2  4) 160-C(  4  2  4)
 161-C(  0  3  4) 162-C(  1  3  4) 163-C(  2  3  4) 164-C(  3  3  4)
 165-C(  4  3  4) 166-R(  0  4  4) 167-C(  1  4  4) 168-C(  2  4  4)
 169-C(  3  4  4) 170-R(  4  4  4)

 DIRECT LATTICE VECTORS COMPON. (A.U.)     RECIP. LATTICE VECTORS COMPON. (A.U.) 
        X            Y            Z              X            Y            Z
   11.3263871    0.0000000    0.0326524      0.5553975   -0.0000000   -0.2285127
    0.0000000   11.2866647    0.0000000     -0.0000000    0.5566911   -0.0000000
    4.2969465    0.0000000   10.4436794     -0.0017365   -0.0000000    0.6023401

 DISK SPACE FOR EIGENVECTORS (FTN 10)    51016448 REALS

 SYMMETRY ADAPTION OF THE BLOCH FUNCTIONS ENABLED
 TTTTTTTTTTTTTTTTTTTTTTTTTTTTTT gordsh1     TELAPSE        7.40 TCPU        5.07

 MATRIX SIZE: P(G) 3404944, F(G)  270824, P(G) IRR  444477, F(G) IRR   70535
 MAX G-VECTOR INDEX FOR 1- AND 2-ELECTRON INTEGRALS 265

 TTTTTTTTTTTTTTTTTTTTTTTTTTTTTT INPUT       TELAPSE        7.40 TCPU        5.07

 NEIGHBORS OF THE NON-EQUIVALENT ATOMS

 N = NUMBER OF NEIGHBORS AT DISTANCE R
    ATOM  N     R/ANG      R/AU   NEIGHBORS (ATOM LABELS AND CELL INDICES)
   1 FE   1     2.2023     4.1617   11 S   -1 1 0
   1 FE   1     2.2266     4.2078    9 S    0 0 0
   1 FE   1     2.3205     4.3852   12 S    0 0 0
   1 FE   1     2.5443     4.8080    6 SB   0 1 0
   1 FE   1     2.5461     4.8114    7 SB   0 1-1
   1 FE   1     2.5719     4.8602    5 SB   0 0 0

   5 SB   1     2.5443     4.8080    2 FE   0 0 0
   5 SB   1     2.5461     4.8114    3 FE   0 1-1
   5 SB   1     2.5517     4.8219   11 S    0 1 0
   5 SB   1     2.5719     4.8602    1 FE   0 0 0
   5 SB   1     3.1674     5.9854    9 S    1 0-1
   5 SB   1     3.1774     6.0044    7 SB   0 1-1

   9 S    1     2.2023     4.1617    3 FE  -1 1 0
   9 S    1     2.2266     4.2078    1 FE   0 0 0
   9 S    1     2.3205     4.3852    4 FE   0 0 0
   9 S    1     2.5517     4.8219    7 SB   0 1 0
   9 S    1     3.1674     5.9854    5 SB  -1 0 1
   9 S    1     3.2491     6.1398    8 SB   0 0 0


 SYMMETRY ALLOWED ELASTIC DISTORTION 1
  0.5773503  0.0000000  0.0000000
  0.0000000  0.5773503  0.0000000
  0.0000000  0.0000000  0.5773503

 SYMMETRY ALLOWED ELASTIC DISTORTION 2
  0.8164966  0.0000000  0.0000000
  0.0000000 -0.4082483  0.0000000
  0.0000000  0.0000000 -0.4082483

 SYMMETRY ALLOWED ELASTIC DISTORTION 3
  0.0000000  0.0000000  0.0000000
  0.0000000  0.7071068  0.0000000
  0.0000000  0.0000000 -0.7071068

 SYMMETRY ALLOWED ELASTIC DISTORTION 4
 -0.0000000  0.0000000  0.7071068
  0.0000000  0.0000000  0.0000000
  0.7071068  0.0000000  0.0000000

 SYMMETRY ALLOWED INTERNAL DEGREE(S) OF FREEDOM:   9
 TTTTTTTTTTTTTTTTTTTTTTTTTTTTTT SYMM        TELAPSE        7.51 TCPU        5.18
 TTTTTTTTTTTTTTTTTTTTTTTTTTTTTT INT_SCREEN  TELAPSE        7.52 TCPU        5.19

 *******************************************************************************
 *                             OPTIMIZATION STARTS                             *
 *******************************************************************************
 RECLASIFICATION OF INDICES FOR INTEGRAL CALC ACCORDING TO DIFFERENT CRITERIA:
           FIXDELTE                  FIXDELTX              FIXDELTN
          0.10000000               0.80000000                 13
 *******************************************************************************

 *******************************************************************************
 COORDINATE AND CELL OPTIMIZATION - POINT    1

 DFT PARAMETERS

     ATOM       ELECTRONS   NET CHARGE   R(ANGSTROM)
   1  26  FE     26.0000      0.0000     1.26000000
   5 251  SB     23.0000      0.0000     1.61000000
   9  16  S      16.0000      0.0000     1.04000000

 SIZE OF GRID=     125893
 TTTTTTTTTTTTTTTTTTTTTTTTTTTTTT MAKE_GRID2  TELAPSE       18.67 TCPU       16.28
 BECKE WEIGHT FUNCTION
 RADSAFE =     2.00
 TOLERANCES - DENSITY:10**- 6; POTENTIAL:10**- 9; GRID WGT:10**-14

 RADIAL INTEGRATION  - INTERVALS (POINTS,UPPER LIMIT):            1( 99,  4.0*R)

 ANGULAR INTEGRATION - INTERVALS (ACCURACY LEVEL [N. POINTS] UPPER LIMIT):
  1(  6[ 146]   0.2)  2( 11[ 302]   0.5)  3( 14[ 590]   0.9)  4( 18[1454]   3.5)
  5( 14[ 590]9999.0)
 TTTTTTTTTTTTTTTTTTTTTTTTTTTTTT INT_CALC    TELAPSE       18.70 TCPU       16.30

 *******************************************************************************
 ICSD_CollCode24161.cif                                                          
 CRYSTAL - SCF - TYPE OF CALCULATION :  UNRESTRICTED OPEN SHELL
 *******************************************************************************

 CAPPA:IS1  8;IS2  8;IS3  8; K PTS MONK NET 170; SYMMOPS:K SPACE   4;G SPACE   4

 TTTTTTTTTTTTTTTTTTTTTTTTTTTTTT SDIK        TELAPSE       18.83 TCPU       16.42

 AAAAAAAAAAAAAAAAAAAAAAAAAAAAAAAAAAAAAAAAAAAAAAAAAAAAAAAAAAAAAAAAAAAAAAAAAAAAAAA
         ATOMIC WAVEFUNCTION(S)


 NUCLEAR CHARGE 26.0  SYMMETRY SPECIES            S    P    D
 N. ELECTRONS   26.0  NUMBER OF PRIMITIVE GTOS   17   11    6
                      NUMBER OF CONTRACTED GTOS   6    4    3
                      NUMBER OF CLOSED SHELLS     4    2    0
                      OPEN SHELL OCCUPATION       0    0    6

  ZNUC  SCFIT    TOTAL HF ENERGY   KINETIC ENERGY   VIRIAL THEOREM             ACCURACY
  26.0    27    -1.262303928E+03  1.262527654E+03 -1.999822796E+00  4.7E-06

 NUCLEAR CHARGE 23.0  SYMMETRY SPECIES            S    P    D
 N. ELECTRONS   23.0  NUMBER OF PRIMITIVE GTOS    8    8    9
                      NUMBER OF CONTRACTED GTOS   4    4    4
                      NUMBER OF CLOSED SHELLS     2    1    1
                      OPEN SHELL OCCUPATION       0    3    0

  ZNUC  SCFIT    TOTAL HF ENERGY   KINETIC ENERGY   VIRIAL THEOREM             ACCURACY
  23.0    16    -2.392134849E+02  9.252340759E+01 -3.585437471E+00  3.6E-06

 NUCLEAR CHARGE 16.0  SYMMETRY SPECIES            S    P
 N. ELECTRONS   16.0  NUMBER OF PRIMITIVE GTOS   14    8
                      NUMBER OF CONTRACTED GTOS   5    4
                      NUMBER OF CLOSED SHELLS     3    1
                      OPEN SHELL OCCUPATION       0    4

  ZNUC  SCFIT    TOTAL HF ENERGY   KINETIC ENERGY   VIRIAL THEOREM             ACCURACY
  16.0    11    -3.974118762E+02  3.986854297E+02 -1.996805618E+00  4.0E-06

 AAAAAAAAAAAAAAAAAAAAAAAAAAAAAAAAAAAAAAAAAAAAAAAAAAAAAAAAAAAAAAAAAAAAAAAAAAAAAAA

 TTTTTTTTTTTTTTTTTTTTTTTTTTTTTT MOQGAD      TELAPSE       18.88 TCPU       16.47
 TTTTTTTTTTTTTTTTTTTTTTTTTTTTTT SHELLXN     TELAPSE       31.40 TCPU       28.87
 TTTTTTTTTTTTTTTTTTTTTTTTTTTTTT MONMO3      TELAPSE       31.71 TCPU       29.18
 NUMERICALLY INTEGRATED DENSITY    129.9999905679    129.9999905679
 TTTTTTTTTTTTTTTTTTTTTTTTTTTTTT NUMDFT      TELAPSE       32.29 TCPU       29.76
 CYC   0 ETOT(AU) -7.609673773056E+03 DETOT -7.61E+03 tst  0.00E+00 PX  1.00E+00
 TTTTTTTTTTTTTTTTTTTTTTTTTTTTTT DIIS        TELAPSE       32.32 TCPU       29.79
 TTTTTTTTTTTTTTTTTTTTTTTTTTTTTT FDIK        TELAPSE       32.72 TCPU       30.16

    ALPHA      ELECTRONS
 INSULATING STATE
 TOP OF VALENCE BANDS -    BAND    130; K    5; EIG -1.6531121E-01 AU
 TOP OF VALENCE BANDS -    BAND    130; K    1; EIG -1.7397037E-01 AU
 BOTTOM OF VIRTUAL BANDS - BAND    131; K  170; EIG -1.3195332E-01 AU
 INDIRECT ENERGY BAND GAP:   0.9077 eV
 BOTTOM OF VIRTUAL BANDS - BAND    131; K    1; EIG -1.3056420E-01 AU

    BETA       ELECTRONS
 INSULATING STATE
 TOP OF VALENCE BANDS -    BAND    130; K    5; EIG -1.6531121E-01 AU
 TOP OF VALENCE BANDS -    BAND    130; K    1; EIG -1.7397037E-01 AU
 BOTTOM OF VIRTUAL BANDS - BAND    131; K  170; EIG -1.3195332E-01 AU
 INDIRECT ENERGY BAND GAP:   0.9077 eV
 BOTTOM OF VIRTUAL BANDS - BAND    131; K    1; EIG -1.3056420E-01 AU
 TTTTTTTTTTTTTTTTTTTTTTTTTTTTTT PDIG        TELAPSE       32.92 TCPU       30.36
 TTTTTTTTTTTTTTTTTTTTTTTTTTTTTT MOQGAD      TELAPSE       32.92 TCPU       30.36
 TTTTTTTTTTTTTTTTTTTTTTTTTTTTTT SHELLXN     TELAPSE       46.36 TCPU       43.59
 TTTTTTTTTTTTTTTTTTTTTTTTTTTTTT MONMO3      TELAPSE       46.66 TCPU       43.89
 NUMERICALLY INTEGRATED DENSITY    129.9999914428    129.9999914428
 TTTTTTTTTTTTTTTTTTTTTTTTTTTTTT NUMDFT      TELAPSE       47.19 TCPU       44.42
 CYC   1 ETOT(AU) -7.607296517426E+03 DETOT  2.38E+00 tst  0.00E+00 PX  1.00E+00
 TTTTTTTTTTTTTTTTTTTTTTTTTTTTTT DIIS        TELAPSE       47.23 TCPU       44.45
 DIIS TEST: 0.57446E+00 AT SCF   CYCLE   1 - MIX   30 %
 TTTTTTTTTTTTTTTTTTTTTTTTTTTTTT FDIK        TELAPSE       47.60 TCPU       44.82

    ALPHA      ELECTRONS
 INSULATING STATE
 TOP OF VALENCE BANDS -    BAND    130; K  166; EIG -1.8355210E-01 AU
 TOP OF VALENCE BANDS -    BAND    130; K    1; EIG -1.9246645E-01 AU
 BOTTOM OF VIRTUAL BANDS - BAND    131; K    5; EIG -1.2573484E-01 AU
 INDIRECT ENERGY BAND GAP:   1.5733 eV
 BOTTOM OF VIRTUAL BANDS - BAND    131; K    1; EIG -1.1926936E-01 AU

    BETA       ELECTRONS
 INSULATING STATE
 TOP OF VALENCE BANDS -    BAND    130; K  166; EIG -1.8355210E-01 AU
 TOP OF VALENCE BANDS -    BAND    130; K    1; EIG -1.9246645E-01 AU
 BOTTOM OF VIRTUAL BANDS - BAND    131; K    5; EIG -1.2573484E-01 AU
 INDIRECT ENERGY BAND GAP:   1.5733 eV
 BOTTOM OF VIRTUAL BANDS - BAND    131; K    1; EIG -1.1926936E-01 AU
 TTTTTTTTTTTTTTTTTTTTTTTTTTTTTT PDIG        TELAPSE       47.80 TCPU       45.02
 TTTTTTTTTTTTTTTTTTTTTTTTTTTTTT MOQGAD      TELAPSE       47.81 TCPU       45.03
 TTTTTTTTTTTTTTTTTTTTTTTTTTTTTT SHELLXN     TELAPSE       61.12 TCPU       58.23
 TTTTTTTTTTTTTTTTTTTTTTTTTTTTTT MONMO3      TELAPSE       61.42 TCPU       58.53
 NUMERICALLY INTEGRATED DENSITY    129.9999919845    129.9999919845
 TTTTTTTTTTTTTTTTTTTTTTTTTTTTTT NUMDFT      TELAPSE       61.95 TCPU       59.06
 CYC   2 ETOT(AU) -7.607345214527E+03 DETOT -4.87E-02 tst  1.83E-03 PX  1.61E-01
 TTTTTTTTTTTTTTTTTTTTTTTTTTTTTT DIIS        TELAPSE       61.99 TCPU       59.09
 DIIS TEST: 0.58161E+00 AT SCF   CYCLE   2 - DIIS ACTIVE - HISTORY:     2 CYCLES
 TTTTTTTTTTTTTTTTTTTTTTTTTTTTTT FDIK        TELAPSE       62.36 TCPU       59.45

    ALPHA      ELECTRONS
 INSULATING STATE
 TOP OF VALENCE BANDS -    BAND    130; K  170; EIG -1.9468631E-01 AU
 TOP OF VALENCE BANDS -    BAND    130; K    1; EIG -2.1274166E-01 AU
 BOTTOM OF VIRTUAL BANDS - BAND    131; K    5; EIG -1.3841767E-01 AU
 INDIRECT ENERGY BAND GAP:   1.5311 eV
 BOTTOM OF VIRTUAL BANDS - BAND    131; K    1; EIG -1.3362761E-01 AU

    BETA       ELECTRONS
 INSULATING STATE
 TOP OF VALENCE BANDS -    BAND    130; K  170; EIG -1.9468631E-01 AU
 TOP OF VALENCE BANDS -    BAND    130; K    1; EIG -2.1274166E-01 AU
 BOTTOM OF VIRTUAL BANDS - BAND    131; K    5; EIG -1.3841767E-01 AU
 INDIRECT ENERGY BAND GAP:   1.5311 eV
 BOTTOM OF VIRTUAL BANDS - BAND    131; K    1; EIG -1.3362761E-01 AU
 TTTTTTTTTTTTTTTTTTTTTTTTTTTTTT PDIG        TELAPSE       62.56 TCPU       59.65
 TTTTTTTTTTTTTTTTTTTTTTTTTTTTTT MOQGAD      TELAPSE       62.56 TCPU       59.65
 TTTTTTTTTTTTTTTTTTTTTTTTTTTTTT SHELLXN     TELAPSE       75.85 TCPU       72.85
 TTTTTTTTTTTTTTTTTTTTTTTTTTTTTT MONMO3      TELAPSE       76.16 TCPU       73.15
 NUMERICALLY INTEGRATED DENSITY    129.9999919767    129.9999919767
 TTTTTTTTTTTTTTTTTTTTTTTTTTTTTT NUMDFT      TELAPSE       76.69 TCPU       73.67
 CYC   3 ETOT(AU) -7.607376958223E+03 DETOT -3.17E-02 tst  7.12E-04 PX  1.01E-01
 TTTTTTTTTTTTTTTTTTTTTTTTTTTTTT DIIS        TELAPSE       76.72 TCPU       73.70
 DIIS TEST: 0.66020E+00 AT SCF   CYCLE   3 - DIIS ACTIVE - HISTORY:     3 CYCLES
 TTTTTTTTTTTTTTTTTTTTTTTTTTTTTT FDIK        TELAPSE       77.10 TCPU       74.07

    ALPHA      ELECTRONS
 INSULATING STATE
 TOP OF VALENCE BANDS -    BAND    130; K  170; EIG -1.8578108E-01 AU
 TOP OF VALENCE BANDS -    BAND    130; K    1; EIG -1.9563220E-01 AU
 BOTTOM OF VIRTUAL BANDS - BAND    131; K    5; EIG -1.1706874E-01 AU
 INDIRECT ENERGY BAND GAP:   1.8698 eV
 BOTTOM OF VIRTUAL BANDS - BAND    131; K    1; EIG -1.1437709E-01 AU

    BETA       ELECTRONS
 INSULATING STATE
 TOP OF VALENCE BANDS -    BAND    130; K  170; EIG -1.8578108E-01 AU
 TOP OF VALENCE BANDS -    BAND    130; K    1; EIG -1.9563220E-01 AU
 BOTTOM OF VIRTUAL BANDS - BAND    131; K    5; EIG -1.1706874E-01 AU
 INDIRECT ENERGY BAND GAP:   1.8698 eV
 BOTTOM OF VIRTUAL BANDS - BAND    131; K    1; EIG -1.1437709E-01 AU
 TTTTTTTTTTTTTTTTTTTTTTTTTTTTTT PDIG        TELAPSE       77.29 TCPU       74.26
 TTTTTTTTTTTTTTTTTTTTTTTTTTTTTT MOQGAD      TELAPSE       77.30 TCPU       74.27
 TTTTTTTTTTTTTTTTTTTTTTTTTTTTTT SHELLXN     TELAPSE       90.59 TCPU       87.45
 TTTTTTTTTTTTTTTTTTTTTTTTTTTTTT MONMO3      TELAPSE       90.89 TCPU       87.75
 NUMERICALLY INTEGRATED DENSITY    129.9999919490    129.9999919490
 TTTTTTTTTTTTTTTTTTTTTTTTTTTTTT NUMDFT      TELAPSE       91.43 TCPU       88.28
 CYC   4 ETOT(AU) -7.607391521469E+03 DETOT -1.46E-02 tst  4.97E-04 PX  5.01E-02
 TTTTTTTTTTTTTTTTTTTTTTTTTTTTTT DIIS        TELAPSE       91.46 TCPU       88.31
 DIIS TEST: 0.40413E+00 AT SCF   CYCLE   4 - DIIS ACTIVE - HISTORY:     4 CYCLES
 TTTTTTTTTTTTTTTTTTTTTTTTTTTTTT FDIK        TELAPSE       91.84 TCPU       88.70

    ALPHA      ELECTRONS
 INSULATING STATE
 TOP OF VALENCE BANDS -    BAND    130; K  170; EIG -1.8708907E-01 AU
 TOP OF VALENCE BANDS -    BAND    130; K    1; EIG -2.0350893E-01 AU
 BOTTOM OF VIRTUAL BANDS - BAND    131; K    5; EIG -1.2439140E-01 AU
 INDIRECT ENERGY BAND GAP:   1.7061 eV
 BOTTOM OF VIRTUAL BANDS - BAND    131; K    1; EIG -1.2053310E-01 AU

    BETA       ELECTRONS
 INSULATING STATE
 TOP OF VALENCE BANDS -    BAND    130; K  170; EIG -1.8708907E-01 AU
 TOP OF VALENCE BANDS -    BAND    130; K    1; EIG -2.0350893E-01 AU
 BOTTOM OF VIRTUAL BANDS - BAND    131; K    5; EIG -1.2439140E-01 AU
 INDIRECT ENERGY BAND GAP:   1.7061 eV
 BOTTOM OF VIRTUAL BANDS - BAND    131; K    1; EIG -1.2053310E-01 AU
 TTTTTTTTTTTTTTTTTTTTTTTTTTTTTT PDIG        TELAPSE       92.04 TCPU       88.89
 TTTTTTTTTTTTTTTTTTTTTTTTTTTTTT MOQGAD      TELAPSE       92.05 TCPU       88.90
 TTTTTTTTTTTTTTTTTTTTTTTTTTTTTT SHELLXN     TELAPSE      105.38 TCPU      102.13
 TTTTTTTTTTTTTTTTTTTTTTTTTTTTTT MONMO3      TELAPSE      105.68 TCPU      102.43
 NUMERICALLY INTEGRATED DENSITY    129.9999921015    129.9999921015
 TTTTTTTTTTTTTTTTTTTTTTTTTTTTTT NUMDFT      TELAPSE      106.22 TCPU      102.96
 CYC   5 ETOT(AU) -7.607421097731E+03 DETOT -2.96E-02 tst  1.71E-04 PX  3.93E-02
 TTTTTTTTTTTTTTTTTTTTTTTTTTTTTT DIIS        TELAPSE      106.25 TCPU      102.99
 DIIS TEST: 0.72003E-02 AT SCF   CYCLE   5 - DIIS ACTIVE - HISTORY:     5 CYCLES
 TTTTTTTTTTTTTTTTTTTTTTTTTTTTTT FDIK        TELAPSE      106.65 TCPU      103.38

    ALPHA      ELECTRONS
 INSULATING STATE
 TOP OF VALENCE BANDS -    BAND    130; K  170; EIG -1.8619946E-01 AU
 TOP OF VALENCE BANDS -    BAND    130; K    1; EIG -2.0252549E-01 AU
 BOTTOM OF VIRTUAL BANDS - BAND    131; K    5; EIG -1.2255481E-01 AU
 INDIRECT ENERGY BAND GAP:   1.7319 eV
 BOTTOM OF VIRTUAL BANDS - BAND    131; K    1; EIG -1.1888944E-01 AU

    BETA       ELECTRONS
 INSULATING STATE
 TOP OF VALENCE BANDS -    BAND    130; K  170; EIG -1.8619946E-01 AU
 TOP OF VALENCE BANDS -    BAND    130; K    1; EIG -2.0252549E-01 AU
 BOTTOM OF VIRTUAL BANDS - BAND    131; K    5; EIG -1.2255481E-01 AU
 INDIRECT ENERGY BAND GAP:   1.7319 eV
 BOTTOM OF VIRTUAL BANDS - BAND    131; K    1; EIG -1.1888944E-01 AU
 TTTTTTTTTTTTTTTTTTTTTTTTTTTTTT PDIG        TELAPSE      106.84 TCPU      103.58
 TTTTTTTTTTTTTTTTTTTTTTTTTTTTTT MOQGAD      TELAPSE      106.85 TCPU      103.58
 TTTTTTTTTTTTTTTTTTTTTTTTTTTTTT SHELLXN     TELAPSE      120.14 TCPU      116.76
 TTTTTTTTTTTTTTTTTTTTTTTTTTTTTT MONMO3      TELAPSE      120.44 TCPU      117.06
 NUMERICALLY INTEGRATED DENSITY    129.9999921044    129.9999921044
 TTTTTTTTTTTTTTTTTTTTTTTTTTTTTT NUMDFT      TELAPSE      121.09 TCPU      117.71
 CYC   6 ETOT(AU) -7.607422966815E+03 DETOT -1.87E-03 tst  8.04E-05 PX  7.87E-03
 TTTTTTTTTTTTTTTTTTTTTTTTTTTTTT DIIS        TELAPSE      121.12 TCPU      117.74
 DIIS TEST: 0.61865E-03 AT SCF   CYCLE   6 - DIIS ACTIVE - HISTORY:     6 CYCLES
 TTTTTTTTTTTTTTTTTTTTTTTTTTTTTT FDIK        TELAPSE      121.49 TCPU      118.10

    ALPHA      ELECTRONS
 INSULATING STATE
 TOP OF VALENCE BANDS -    BAND    130; K  170; EIG -1.8537592E-01 AU
 TOP OF VALENCE BANDS -    BAND    130; K    1; EIG -2.0226202E-01 AU
 BOTTOM OF VIRTUAL BANDS - BAND    131; K    5; EIG -1.2219284E-01 AU
 INDIRECT ENERGY BAND GAP:   1.7193 eV
 BOTTOM OF VIRTUAL BANDS - BAND    131; K    1; EIG -1.1875195E-01 AU

    BETA       ELECTRONS
 INSULATING STATE
 TOP OF VALENCE BANDS -    BAND    130; K  170; EIG -1.8537592E-01 AU
 TOP OF VALENCE BANDS -    BAND    130; K    1; EIG -2.0226202E-01 AU
 BOTTOM OF VIRTUAL BANDS - BAND    131; K    5; EIG -1.2219284E-01 AU
 INDIRECT ENERGY BAND GAP:   1.7193 eV
 BOTTOM OF VIRTUAL BANDS - BAND    131; K    1; EIG -1.1875195E-01 AU
 TTTTTTTTTTTTTTTTTTTTTTTTTTTTTT PDIG        TELAPSE      121.68 TCPU      118.29
 TTTTTTTTTTTTTTTTTTTTTTTTTTTTTT MOQGAD      TELAPSE      121.69 TCPU      118.30
 TTTTTTTTTTTTTTTTTTTTTTTTTTTTTT SHELLXN     TELAPSE      135.03 TCPU      131.54
 TTTTTTTTTTTTTTTTTTTTTTTTTTTTTT MONMO3      TELAPSE      135.33 TCPU      131.84
 NUMERICALLY INTEGRATED DENSITY    129.9999921224    129.9999921224
 TTTTTTTTTTTTTTTTTTTTTTTTTTTTTT NUMDFT      TELAPSE      135.87 TCPU      132.37
 CYC   7 ETOT(AU) -7.607423238718E+03 DETOT -2.72E-04 tst  2.03E-05 PX  3.82E-03
 TTTTTTTTTTTTTTTTTTTTTTTTTTTTTT DIIS        TELAPSE      135.90 TCPU      132.40
 DIIS TEST: 0.52636E-03 AT SCF   CYCLE   7 - DIIS ACTIVE - HISTORY:     7 CYCLES
 TTTTTTTTTTTTTTTTTTTTTTTTTTTTTT FDIK        TELAPSE      136.30 TCPU      132.77

    ALPHA      ELECTRONS
 INSULATING STATE
 TOP OF VALENCE BANDS -    BAND    130; K  170; EIG -1.8504610E-01 AU
 TOP OF VALENCE BANDS -    BAND    130; K    1; EIG -2.0233312E-01 AU
 BOTTOM OF VIRTUAL BANDS - BAND    131; K    5; EIG -1.2224806E-01 AU
 INDIRECT ENERGY BAND GAP:   1.7088 eV
 BOTTOM OF VIRTUAL BANDS - BAND    131; K    1; EIG -1.1878227E-01 AU

    BETA       ELECTRONS
 INSULATING STATE
 TOP OF VALENCE BANDS -    BAND    130; K  170; EIG -1.8504610E-01 AU
 TOP OF VALENCE BANDS -    BAND    130; K    1; EIG -2.0233312E-01 AU
 BOTTOM OF VIRTUAL BANDS - BAND    131; K    5; EIG -1.2224806E-01 AU
 INDIRECT ENERGY BAND GAP:   1.7088 eV
 BOTTOM OF VIRTUAL BANDS - BAND    131; K    1; EIG -1.1878227E-01 AU
 TTTTTTTTTTTTTTTTTTTTTTTTTTTTTT PDIG        TELAPSE      136.50 TCPU      132.96
 TTTTTTTTTTTTTTTTTTTTTTTTTTTTTT MOQGAD      TELAPSE      136.51 TCPU      132.97
 TTTTTTTTTTTTTTTTTTTTTTTTTTTTTT SHELLXN     TELAPSE      149.86 TCPU      146.22
 TTTTTTTTTTTTTTTTTTTTTTTTTTTTTT MONMO3      TELAPSE      150.16 TCPU      146.52
 NUMERICALLY INTEGRATED DENSITY    129.9999921259    129.9999921259
 TTTTTTTTTTTTTTTTTTTTTTTTTTTTTT NUMDFT      TELAPSE      150.70 TCPU      147.06
 CYC   8 ETOT(AU) -7.607423326998E+03 DETOT -8.83E-05 tst  2.89E-06 PX  1.29E-03
 TTTTTTTTTTTTTTTTTTTTTTTTTTTTTT DIIS        TELAPSE      150.73 TCPU      147.09
 DIIS TEST: 0.21808E-04 AT SCF   CYCLE   8 - DIIS ACTIVE - HISTORY:     8 CYCLES
 TTTTTTTTTTTTTTTTTTTTTTTTTTTTTT FDIK        TELAPSE      151.11 TCPU      147.46

    ALPHA      ELECTRONS
 INSULATING STATE
 TOP OF VALENCE BANDS -    BAND    130; K  170; EIG -1.8503849E-01 AU
 TOP OF VALENCE BANDS -    BAND    130; K    1; EIG -2.0240299E-01 AU
 BOTTOM OF VIRTUAL BANDS - BAND    131; K    5; EIG -1.2238209E-01 AU
 INDIRECT ENERGY BAND GAP:   1.7050 eV
 BOTTOM OF VIRTUAL BANDS - BAND    131; K    1; EIG -1.1892809E-01 AU

    BETA       ELECTRONS
 INSULATING STATE
 TOP OF VALENCE BANDS -    BAND    130; K  170; EIG -1.8503849E-01 AU
 TOP OF VALENCE BANDS -    BAND    130; K    1; EIG -2.0240299E-01 AU
 BOTTOM OF VIRTUAL BANDS - BAND    131; K    5; EIG -1.2238209E-01 AU
 INDIRECT ENERGY BAND GAP:   1.7050 eV
 BOTTOM OF VIRTUAL BANDS - BAND    131; K    1; EIG -1.1892809E-01 AU
 TTTTTTTTTTTTTTTTTTTTTTTTTTTTTT PDIG        TELAPSE      151.31 TCPU      147.66
 TTTTTTTTTTTTTTTTTTTTTTTTTTTTTT MOQGAD      TELAPSE      151.32 TCPU      147.66
 TTTTTTTTTTTTTTTTTTTTTTTTTTTTTT SHELLXN     TELAPSE      164.61 TCPU      160.86
 TTTTTTTTTTTTTTTTTTTTTTTTTTTTTT MONMO3      TELAPSE      164.91 TCPU      161.16
 NUMERICALLY INTEGRATED DENSITY    129.9999921272    129.9999921272
 TTTTTTTTTTTTTTTTTTTTTTTTTTTTTT NUMDFT      TELAPSE      165.45 TCPU      161.69
 CYC   9 ETOT(AU) -7.607423335109E+03 DETOT -8.11E-06 tst  1.52E-07 PX  3.64E-04
 TTTTTTTTTTTTTTTTTTTTTTTTTTTTTT DIIS        TELAPSE      165.48 TCPU      161.72
 DIIS TEST: 0.66527E-06 AT SCF   CYCLE   9 - DIIS ACTIVE - HISTORY:     9 CYCLES
 TTTTTTTTTTTTTTTTTTTTTTTTTTTTTT FDIK        TELAPSE      165.90 TCPU      162.13

    ALPHA      ELECTRONS
 INSULATING STATE
 TOP OF VALENCE BANDS -    BAND    130; K  170; EIG -1.8501283E-01 AU
 TOP OF VALENCE BANDS -    BAND    130; K    1; EIG -2.0240089E-01 AU
 BOTTOM OF VIRTUAL BANDS - BAND    131; K    5; EIG -1.2239373E-01 AU
 INDIRECT ENERGY BAND GAP:   1.7040 eV
 BOTTOM OF VIRTUAL BANDS - BAND    131; K    1; EIG -1.1893620E-01 AU

    BETA       ELECTRONS
 INSULATING STATE
 TOP OF VALENCE BANDS -    BAND    130; K  170; EIG -1.8501283E-01 AU
 TOP OF VALENCE BANDS -    BAND    130; K    1; EIG -2.0240089E-01 AU
 BOTTOM OF VIRTUAL BANDS - BAND    131; K    5; EIG -1.2239373E-01 AU
 INDIRECT ENERGY BAND GAP:   1.7040 eV
 BOTTOM OF VIRTUAL BANDS - BAND    131; K    1; EIG -1.1893620E-01 AU
 TTTTTTTTTTTTTTTTTTTTTTTTTTTTTT PDIG        TELAPSE      166.10 TCPU      162.33
 TTTTTTTTTTTTTTTTTTTTTTTTTTTTTT MOQGAD      TELAPSE      166.10 TCPU      162.33
 TTTTTTTTTTTTTTTTTTTTTTTTTTTTTT SHELLXN     TELAPSE      179.50 TCPU      175.64
 TTTTTTTTTTTTTTTTTTTTTTTTTTTTTT MONMO3      TELAPSE      179.81 TCPU      175.94
 NUMERICALLY INTEGRATED DENSITY    129.9999921277    129.9999921277
 TTTTTTTTTTTTTTTTTTTTTTTTTTTTTT NUMDFT      TELAPSE      180.34 TCPU      176.47
 CYC  10 ETOT(AU) -7.607423333627E+03 DETOT  1.48E-06 tst  3.76E-08 PX  2.87E-04
 TTTTTTTTTTTTTTTTTTTTTTTTTTTTTT DIIS        TELAPSE      180.37 TCPU      176.50
 DIIS TEST: 0.15602E-06 AT SCF   CYCLE  10 - DIIS ACTIVE - HISTORY:    10 CYCLES
 TTTTTTTTTTTTTTTTTTTTTTTTTTTTTT FDIK        TELAPSE      180.76 TCPU      176.88

    ALPHA      ELECTRONS
 INSULATING STATE
 TOP OF VALENCE BANDS -    BAND    130; K  170; EIG -1.8501405E-01 AU
 TOP OF VALENCE BANDS -    BAND    130; K    1; EIG -2.0240672E-01 AU
 BOTTOM OF VIRTUAL BANDS - BAND    131; K    5; EIG -1.2240194E-01 AU
 INDIRECT ENERGY BAND GAP:   1.7038 eV
 BOTTOM OF VIRTUAL BANDS - BAND    131; K    1; EIG -1.1894285E-01 AU

    BETA       ELECTRONS
 INSULATING STATE
 TOP OF VALENCE BANDS -    BAND    130; K  170; EIG -1.8501405E-01 AU
 TOP OF VALENCE BANDS -    BAND    130; K    1; EIG -2.0240672E-01 AU
 BOTTOM OF VIRTUAL BANDS - BAND    131; K    5; EIG -1.2240194E-01 AU
 INDIRECT ENERGY BAND GAP:   1.7038 eV
 BOTTOM OF VIRTUAL BANDS - BAND    131; K    1; EIG -1.1894285E-01 AU
 TTTTTTTTTTTTTTTTTTTTTTTTTTTTTT PDIG        TELAPSE      180.96 TCPU      177.08
 TTTTTTTTTTTTTTTTTTTTTTTTTTTTTT MOQGAD      TELAPSE      180.96 TCPU      177.08
 TTTTTTTTTTTTTTTTTTTTTTTTTTTTTT SHELLXN     TELAPSE      194.27 TCPU      190.30
 TTTTTTTTTTTTTTTTTTTTTTTTTTTTTT MONMO3      TELAPSE      194.57 TCPU      190.60
 NUMERICALLY INTEGRATED DENSITY    129.9999921277    129.9999921277
 TTTTTTTTTTTTTTTTTTTTTTTTTTTTTT NUMDFT      TELAPSE      195.21 TCPU      191.23
 CYC  11 ETOT(AU) -7.607423332625E+03 DETOT  1.00E-06 tst  6.70E-09 PX  1.42E-04
 TTTTTTTTTTTTTTTTTTTTTTTTTTTTTT DIIS        TELAPSE      195.24 TCPU      191.26
 DIIS TEST: 0.75709E-07 AT SCF   CYCLE  11 - DIIS ACTIVE - HISTORY:    11 CYCLES
 TTTTTTTTTTTTTTTTTTTTTTTTTTTTTT FDIK        TELAPSE      195.64 TCPU      191.65

    ALPHA      ELECTRONS
 INSULATING STATE
 TOP OF VALENCE BANDS -    BAND    130; K  170; EIG -1.8501844E-01 AU
 TOP OF VALENCE BANDS -    BAND    130; K    1; EIG -2.0241262E-01 AU
 BOTTOM OF VIRTUAL BANDS - BAND    131; K    5; EIG -1.2241085E-01 AU
 INDIRECT ENERGY BAND GAP:   1.7036 eV
 BOTTOM OF VIRTUAL BANDS - BAND    131; K    1; EIG -1.1894980E-01 AU

    BETA       ELECTRONS
 INSULATING STATE
 TOP OF VALENCE BANDS -    BAND    130; K  170; EIG -1.8501844E-01 AU
 TOP OF VALENCE BANDS -    BAND    130; K    1; EIG -2.0241262E-01 AU
 BOTTOM OF VIRTUAL BANDS - BAND    131; K    5; EIG -1.2241085E-01 AU
 INDIRECT ENERGY BAND GAP:   1.7036 eV
 BOTTOM OF VIRTUAL BANDS - BAND    131; K    1; EIG -1.1894980E-01 AU
 TTTTTTTTTTTTTTTTTTTTTTTTTTTTTT PDIG        TELAPSE      195.84 TCPU      191.85
 TTTTTTTTTTTTTTTTTTTTTTTTTTTTTT MOQGAD      TELAPSE      195.85 TCPU      191.85
 TTTTTTTTTTTTTTTTTTTTTTTTTTTTTT SHELLXN     TELAPSE      209.13 TCPU      204.95
 TTTTTTTTTTTTTTTTTTTTTTTTTTTTTT MONMO3      TELAPSE      209.43 TCPU      205.25
 NUMERICALLY INTEGRATED DENSITY    129.9999921278    129.9999921278
 TTTTTTTTTTTTTTTTTTTTTTTTTTTTTT NUMDFT      TELAPSE      209.97 TCPU      205.78
 CYC  12 ETOT(AU) -7.607423332160E+03 DETOT  4.66E-07 tst  2.00E-09 PX  6.79E-05
 TTTTTTTTTTTTTTTTTTTTTTTTTTTTTT DIIS        TELAPSE      210.00 TCPU      205.81
 DIIS TEST: 0.65613E-08 AT SCF   CYCLE  12 - DIIS ACTIVE - HISTORY:    12 CYCLES
 TTTTTTTTTTTTTTTTTTTTTTTTTTTTTT FDIK        TELAPSE      210.41 TCPU      206.22

    ALPHA      ELECTRONS
 INSULATING STATE
 TOP OF VALENCE BANDS -    BAND    130; K  170; EIG -1.8501932E-01 AU
 TOP OF VALENCE BANDS -    BAND    130; K    1; EIG -2.0241435E-01 AU
 BOTTOM OF VIRTUAL BANDS - BAND    131; K    5; EIG -1.2241323E-01 AU
 INDIRECT ENERGY BAND GAP:   1.7036 eV
 BOTTOM OF VIRTUAL BANDS - BAND    131; K    1; EIG -1.1895066E-01 AU

    BETA       ELECTRONS
 INSULATING STATE
 TOP OF VALENCE BANDS -    BAND    130; K  170; EIG -1.8501932E-01 AU
 TOP OF VALENCE BANDS -    BAND    130; K    1; EIG -2.0241435E-01 AU
 BOTTOM OF VIRTUAL BANDS - BAND    131; K    5; EIG -1.2241323E-01 AU
 INDIRECT ENERGY BAND GAP:   1.7036 eV
 BOTTOM OF VIRTUAL BANDS - BAND    131; K    1; EIG -1.1895066E-01 AU
 TTTTTTTTTTTTTTTTTTTTTTTTTTTTTT PDIG        TELAPSE      210.61 TCPU      206.41
 TTTTTTTTTTTTTTTTTTTTTTTTTTTTTT MOQGAD      TELAPSE      210.61 TCPU      206.42
 TTTTTTTTTTTTTTTTTTTTTTTTTTTTTT SHELLXN     TELAPSE      223.93 TCPU      219.63
 TTTTTTTTTTTTTTTTTTTTTTTTTTTTTT MONMO3      TELAPSE      224.23 TCPU      219.93
 NUMERICALLY INTEGRATED DENSITY    129.9999921278    129.9999921278
 TTTTTTTTTTTTTTTTTTTTTTTTTTTTTT NUMDFT      TELAPSE      224.76 TCPU      220.46
 CYC  13 ETOT(AU) -7.607423331852E+03 DETOT  3.07E-07 tst  1.01E-09 PX  4.61E-05
 TTTTTTTTTTTTTTTTTTTTTTTTTTTTTT DIIS        TELAPSE      224.79 TCPU      220.49
 DIIS TEST: 0.12638E-08 AT SCF   CYCLE  13 - DIIS ACTIVE - HISTORY:    13 CYCLES
 TTTTTTTTTTTTTTTTTTTTTTTTTTTTTT FDIK        TELAPSE      225.15 TCPU      220.84

    ALPHA      ELECTRONS
 INSULATING STATE
 TOP OF VALENCE BANDS -    BAND    130; K  170; EIG -1.8501892E-01 AU
 TOP OF VALENCE BANDS -    BAND    130; K    1; EIG -2.0241331E-01 AU
 BOTTOM OF VIRTUAL BANDS - BAND    131; K    5; EIG -1.2241219E-01 AU
 INDIRECT ENERGY BAND GAP:   1.7036 eV
 BOTTOM OF VIRTUAL BANDS - BAND    131; K    1; EIG -1.1894950E-01 AU

    BETA       ELECTRONS
 INSULATING STATE
 TOP OF VALENCE BANDS -    BAND    130; K  170; EIG -1.8501892E-01 AU
 TOP OF VALENCE BANDS -    BAND    130; K    1; EIG -2.0241331E-01 AU
 BOTTOM OF VIRTUAL BANDS - BAND    131; K    5; EIG -1.2241219E-01 AU
 INDIRECT ENERGY BAND GAP:   1.7036 eV
 BOTTOM OF VIRTUAL BANDS - BAND    131; K    1; EIG -1.1894950E-01 AU
 TTTTTTTTTTTTTTTTTTTTTTTTTTTTTT PDIG        TELAPSE      225.35 TCPU      221.04
 TTTTTTTTTTTTTTTTTTTTTTTTTTTTTT MOQGAD      TELAPSE      225.36 TCPU      221.04
 TTTTTTTTTTTTTTTTTTTTTTTTTTTTTT SHELLXN     TELAPSE      238.64 TCPU      234.18
 TTTTTTTTTTTTTTTTTTTTTTTTTTTTTT MONMO3      TELAPSE      238.95 TCPU      234.49
 NUMERICALLY INTEGRATED DENSITY    129.9999921278    129.9999921278
 TTTTTTTTTTTTTTTTTTTTTTTTTTTTTT NUMDFT      TELAPSE      239.49 TCPU      235.03
 CYC  14 ETOT(AU) -7.607423331781E+03 DETOT  7.06E-08 tst  2.47E-11 PX  5.47E-06
 TTTTTTTTTTTTTTTTTTTTTTTTTTTTTT DIIS        TELAPSE      239.52 TCPU      235.06
 DIIS TEST: 0.76149E-10 AT SCF   CYCLE  14 - DIIS ACTIVE - HISTORY:    14 CYCLES
 TTTTTTTTTTTTTTTTTTTTTTTTTTTTTT FDIK        TELAPSE      239.90 TCPU      235.41

    ALPHA      ELECTRONS
 INSULATING STATE
 TOP OF VALENCE BANDS -    BAND    130; K  170; EIG -1.8501884E-01 AU
 TOP OF VALENCE BANDS -    BAND    130; K    1; EIG -2.0241314E-01 AU
 BOTTOM OF VIRTUAL BANDS - BAND    131; K    5; EIG -1.2241190E-01 AU
 INDIRECT ENERGY BAND GAP:   1.7036 eV
 BOTTOM OF VIRTUAL BANDS - BAND    131; K    1; EIG -1.1894919E-01 AU

    BETA       ELECTRONS
 INSULATING STATE
 TOP OF VALENCE BANDS -    BAND    130; K  170; EIG -1.8501884E-01 AU
 TOP OF VALENCE BANDS -    BAND    130; K    1; EIG -2.0241314E-01 AU
 BOTTOM OF VIRTUAL BANDS - BAND    131; K    5; EIG -1.2241190E-01 AU
 INDIRECT ENERGY BAND GAP:   1.7036 eV
 BOTTOM OF VIRTUAL BANDS - BAND    131; K    1; EIG -1.1894919E-01 AU
 TTTTTTTTTTTTTTTTTTTTTTTTTTTTTT PDIG        TELAPSE      240.09 TCPU      235.60
 TTTTTTTTTTTTTTTTTTTTTTTTTTTTTT MOQGAD      TELAPSE      240.10 TCPU      235.61
 TTTTTTTTTTTTTTTTTTTTTTTTTTTTTT SHELLXN     TELAPSE      253.42 TCPU      248.82
 TTTTTTTTTTTTTTTTTTTTTTTTTTTTTT MONMO3      TELAPSE      253.72 TCPU      249.13
 NUMERICALLY INTEGRATED DENSITY    129.9999921278    129.9999921278
 TTTTTTTTTTTTTTTTTTTTTTTTTTTTTT NUMDFT      TELAPSE      254.25 TCPU      249.65
 CYC  15 ETOT(AU) -7.607423331781E+03 DETOT  3.09E-11 tst  3.67E-12 PX  1.64E-06
 TTTTTTTTTTTTTTTTTTTTTTTTTTTTTT DIIS        TELAPSE      254.28 TCPU      249.68
 DIIS TEST: 0.82772E-11 AT SCF   CYCLE  15 - DIIS ACTIVE - HISTORY:    15 CYCLES
 TTTTTTTTTTTTTTTTTTTTTTTTTTTTTT FDIK        TELAPSE      254.67 TCPU      250.06

    ALPHA      ELECTRONS
 INSULATING STATE
 TOP OF VALENCE BANDS -    BAND    130; K  170; EIG -1.8501882E-01 AU
 TOP OF VALENCE BANDS -    BAND    130; K    1; EIG -2.0241302E-01 AU
 BOTTOM OF VIRTUAL BANDS - BAND    131; K    5; EIG -1.2241171E-01 AU
 INDIRECT ENERGY BAND GAP:   1.7036 eV
 BOTTOM OF VIRTUAL BANDS - BAND    131; K    1; EIG -1.1894903E-01 AU

    BETA       ELECTRONS
 INSULATING STATE
 TOP OF VALENCE BANDS -    BAND    130; K  170; EIG -1.8501882E-01 AU
 TOP OF VALENCE BANDS -    BAND    130; K    1; EIG -2.0241302E-01 AU
 BOTTOM OF VIRTUAL BANDS - BAND    131; K    5; EIG -1.2241171E-01 AU
 INDIRECT ENERGY BAND GAP:   1.7036 eV
 BOTTOM OF VIRTUAL BANDS - BAND    131; K    1; EIG -1.1894903E-01 AU
 TTTTTTTTTTTTTTTTTTTTTTTTTTTTTT PDIG        TELAPSE      254.86 TCPU      250.25
 TTTTTTTTTTTTTTTTTTTTTTTTTTTTTT MOQGAD      TELAPSE      254.87 TCPU      250.26
 TTTTTTTTTTTTTTTTTTTTTTTTTTTTTT SHELLXN     TELAPSE      268.17 TCPU      263.46
 TTTTTTTTTTTTTTTTTTTTTTTTTTTTTT MONMO3      TELAPSE      268.48 TCPU      263.76
 NUMERICALLY INTEGRATED DENSITY    129.9999921278    129.9999921278
 TTTTTTTTTTTTTTTTTTTTTTTTTTTTTT NUMDFT      TELAPSE      269.09 TCPU      264.36
 CYC  16 ETOT(AU) -7.607423331772E+03 DETOT  9.56E-09 tst  8.95E-13 PX  8.05E-07
 TTTTTTTTTTTTTTTTTTTTTTTTTTTTTT DIIS        TELAPSE      269.12 TCPU      264.39
 DIIS TEST: 0.87468E-12 AT SCF   CYCLE  16 - DIIS ACTIVE - HISTORY:    16 CYCLES
 TTTTTTTTTTTTTTTTTTTTTTTTTTTTTT FDIK        TELAPSE      269.51 TCPU      264.78

    ALPHA      ELECTRONS
 INSULATING STATE
 TOP OF VALENCE BANDS -    BAND    130; K  170; EIG -1.8501884E-01 AU
 TOP OF VALENCE BANDS -    BAND    130; K    1; EIG -2.0241304E-01 AU
 BOTTOM OF VIRTUAL BANDS - BAND    131; K    5; EIG -1.2241169E-01 AU
 INDIRECT ENERGY BAND GAP:   1.7036 eV
 BOTTOM OF VIRTUAL BANDS - BAND    131; K    1; EIG -1.1894903E-01 AU

    BETA       ELECTRONS
 INSULATING STATE
 TOP OF VALENCE BANDS -    BAND    130; K  170; EIG -1.8501884E-01 AU
 TOP OF VALENCE BANDS -    BAND    130; K    1; EIG -2.0241304E-01 AU
 BOTTOM OF VIRTUAL BANDS - BAND    131; K    5; EIG -1.2241169E-01 AU
 INDIRECT ENERGY BAND GAP:   1.7036 eV
 BOTTOM OF VIRTUAL BANDS - BAND    131; K    1; EIG -1.1894903E-01 AU
 TTTTTTTTTTTTTTTTTTTTTTTTTTTTTT PDIG        TELAPSE      269.71 TCPU      264.97
 TTTTTTTTTTTTTTTTTTTTTTTTTTTTTT MOQGAD      TELAPSE      269.71 TCPU      264.98
 TTTTTTTTTTTTTTTTTTTTTTTTTTTTTT SHELLXN     TELAPSE      283.00 TCPU      278.16
 TTTTTTTTTTTTTTTTTTTTTTTTTTTTTT MONMO3      TELAPSE      283.30 TCPU      278.46
 NUMERICALLY INTEGRATED DENSITY    129.9999921278    129.9999921278
 TTTTTTTTTTTTTTTTTTTTTTTTTTTTTT NUMDFT      TELAPSE      283.83 TCPU      278.99
 CYC  17 ETOT(AU) -7.607423331771E+03 DETOT  4.97E-10 tst  9.99E-14 PX  2.49E-07
 TTTTTTTTTTTTTTTTTTTTTTTTTTTTTT DIIS        TELAPSE      283.86 TCPU      279.02
 DIIS TEST: 0.12408E-12 AT SCF   CYCLE  17 - DIIS ACTIVE - HISTORY:    17 CYCLES
 TTTTTTTTTTTTTTTTTTTTTTTTTTTTTT FDIK        TELAPSE      284.27 TCPU      279.42

    ALPHA      ELECTRONS
 INSULATING STATE
 TOP OF VALENCE BANDS -    BAND    130; K  170; EIG -1.8501884E-01 AU
 TOP OF VALENCE BANDS -    BAND    130; K    1; EIG -2.0241303E-01 AU
 BOTTOM OF VIRTUAL BANDS - BAND    131; K    5; EIG -1.2241167E-01 AU
 INDIRECT ENERGY BAND GAP:   1.7036 eV
 BOTTOM OF VIRTUAL BANDS - BAND    131; K    1; EIG -1.1894903E-01 AU

    BETA       ELECTRONS
 INSULATING STATE
 TOP OF VALENCE BANDS -    BAND    130; K  170; EIG -1.8501884E-01 AU
 TOP OF VALENCE BANDS -    BAND    130; K    1; EIG -2.0241303E-01 AU
 BOTTOM OF VIRTUAL BANDS - BAND    131; K    5; EIG -1.2241167E-01 AU
 INDIRECT ENERGY BAND GAP:   1.7036 eV
 BOTTOM OF VIRTUAL BANDS - BAND    131; K    1; EIG -1.1894903E-01 AU
 TTTTTTTTTTTTTTTTTTTTTTTTTTTTTT PDIG        TELAPSE      284.47 TCPU      279.62
 TTTTTTTTTTTTTTTTTTTTTTTTTTTTTT MOQGAD      TELAPSE      284.48 TCPU      279.63
 TTTTTTTTTTTTTTTTTTTTTTTTTTTTTT SHELLXN     TELAPSE      297.77 TCPU      292.72
 TTTTTTTTTTTTTTTTTTTTTTTTTTTTTT MONMO3      TELAPSE      298.07 TCPU      293.02
 NUMERICALLY INTEGRATED DENSITY    129.9999921278    129.9999921278
 TTTTTTTTTTTTTTTTTTTTTTTTTTTTTT NUMDFT      TELAPSE      298.67 TCPU      293.61
 CYC  18 ETOT(AU) -7.607423331770E+03 DETOT  8.96E-10 tst  1.00E-14 PX  7.39E-08
 TTTTTTTTTTTTTTTTTTTTTTTTTTTTTT DIIS        TELAPSE      298.70 TCPU      293.64
 DIIS TEST: 0.16102E-13 AT SCF   CYCLE  18 - DIIS ACTIVE - HISTORY:    18 CYCLES
 TTTTTTTTTTTTTTTTTTTTTTTTTTTTTT FDIK        TELAPSE      299.09 TCPU      294.02

    ALPHA      ELECTRONS
 INSULATING STATE
 TOP OF VALENCE BANDS -    BAND    130; K  170; EIG -1.8501884E-01 AU
 TOP OF VALENCE BANDS -    BAND    130; K    1; EIG -2.0241303E-01 AU
 BOTTOM OF VIRTUAL BANDS - BAND    131; K    5; EIG -1.2241167E-01 AU
 INDIRECT ENERGY BAND GAP:   1.7036 eV
 BOTTOM OF VIRTUAL BANDS - BAND    131; K    1; EIG -1.1894903E-01 AU

    BETA       ELECTRONS
 INSULATING STATE
 TOP OF VALENCE BANDS -    BAND    130; K  170; EIG -1.8501884E-01 AU
 TOP OF VALENCE BANDS -    BAND    130; K    1; EIG -2.0241303E-01 AU
 BOTTOM OF VIRTUAL BANDS - BAND    131; K    5; EIG -1.2241167E-01 AU
 INDIRECT ENERGY BAND GAP:   1.7036 eV
 BOTTOM OF VIRTUAL BANDS - BAND    131; K    1; EIG -1.1894903E-01 AU
 TTTTTTTTTTTTTTTTTTTTTTTTTTTTTT PDIG        TELAPSE      299.28 TCPU      294.21
 TTTTTTTTTTTTTTTTTTTTTTTTTTTTTT MOQGAD      TELAPSE      299.29 TCPU      294.22
 TTTTTTTTTTTTTTTTTTTTTTTTTTTTTT SHELLXN     TELAPSE      312.63 TCPU      307.45
 TTTTTTTTTTTTTTTTTTTTTTTTTTTTTT MONMO3      TELAPSE      312.93 TCPU      307.76
 NUMERICALLY INTEGRATED DENSITY    129.9999921278    129.9999921278
 TTTTTTTTTTTTTTTTTTTTTTTTTTTTTT NUMDFT      TELAPSE      313.47 TCPU      308.28
 CYC  19 ETOT(AU) -7.607423331770E+03 DETOT  4.55E-12 tst  9.11E-16 PX  2.60E-08
 TTTTTTTTTTTTTTTTTTTTTTTTTTTTTT DIIS        TELAPSE      313.50 TCPU      308.31
 DIIS TEST: 0.28475E-14 AT SCF   CYCLE  19 - DIIS ACTIVE - HISTORY:    19 CYCLES
 TTTTTTTTTTTTTTTTTTTTTTTTTTTTTT FDIK        TELAPSE      313.90 TCPU      308.71

    ALPHA      ELECTRONS
 INSULATING STATE
 TOP OF VALENCE BANDS -    BAND    130; K  170; EIG -1.8501883E-01 AU
 TOP OF VALENCE BANDS -    BAND    130; K    1; EIG -2.0241304E-01 AU
 BOTTOM OF VIRTUAL BANDS - BAND    131; K    5; EIG -1.2241167E-01 AU
 INDIRECT ENERGY BAND GAP:   1.7036 eV
 BOTTOM OF VIRTUAL BANDS - BAND    131; K    1; EIG -1.1894903E-01 AU

    BETA       ELECTRONS
 INSULATING STATE
 TOP OF VALENCE BANDS -    BAND    130; K  170; EIG -1.8501883E-01 AU
 TOP OF VALENCE BANDS -    BAND    130; K    1; EIG -2.0241304E-01 AU
 BOTTOM OF VIRTUAL BANDS - BAND    131; K    5; EIG -1.2241167E-01 AU
 INDIRECT ENERGY BAND GAP:   1.7036 eV
 BOTTOM OF VIRTUAL BANDS - BAND    131; K    1; EIG -1.1894903E-01 AU
 TTTTTTTTTTTTTTTTTTTTTTTTTTTTTT PDIG        TELAPSE      314.09 TCPU      308.90
 TTTTTTTTTTTTTTTTTTTTTTTTTTTTTT MOQGAD      TELAPSE      314.10 TCPU      308.91
 TTTTTTTTTTTTTTTTTTTTTTTTTTTTTT SHELLXN     TELAPSE      327.36 TCPU      322.09
 ::: PSEUDO TOTAL   ENERGY                        -7.3027347431030E+03
 ::: VIRIAL COEFFICIENT                            9.7945376222966E-01
 TTTTTTTTTTTTTTTTTTTTTTTTTTTTTT MONMO3      TELAPSE      327.67 TCPU      322.39
 NUMERICALLY INTEGRATED DENSITY    129.9999921278    129.9999921278
 EXCHANGE ENERGY: -0.292893713274E+03  CORRELATION ENERGY: -0.117948753931E+02
 TTTTTTTTTTTTTTTTTTTTTTTTTTTTTT NUMDFT      TELAPSE      328.24 TCPU      322.95
 CYC  20 ETOT(AU) -7.607423331770E+03 DETOT  2.73E-12 tst  1.15E-16 PX  2.60E-08

 == SCF ENDED - CONVERGENCE ON ENERGY      E(AU) -7.6074233317704E+03 CYCLES  20


 ENERGY EXPRESSION=HARTREE+FOCK EXCH*0.25000+(PBE        EXCH)*0.75000+PBE        CORR


 TOTAL ENERGY(DFT)(AU)( 20) -7.6074233317704E+03 DE 2.7E-12 tester 1.1E-16
 TTTTTTTTTTTTTTTTTTTTTTTTTTTTTT EDFT        TELAPSE      328.25 TCPU      322.95

 *******************************************************************************
 *                             FORCE CALCULATION                               *
 *******************************************************************************

 TTTTTTTTTTTTTTTTTTTTTTTTTTTTTT NUMDFG      TELAPSE      329.36 TCPU      324.06
 INFORMATION **** EXCPOG **** EXCH. BIPO BUFFER LENGTH (WORDS) =    13660956
 INFORMATION **** GENPOG **** BIPO BUFFER LENGTH (WORDS) =     2255600
 TTTTTTTTTTTTTTTTTTTTTTTTTTTTTT SHELXG      TELAPSE      436.87 TCPU      430.88

 CARTESIAN FORCES IN HARTREE/BOHR (ANALYTICAL)
   ATOM                     X                   Y                   Z
   1  26            -8.481640898950E-06 -4.153050267419E-05  1.761812422441E-05
   2  26             8.481640868752E-06 -4.153050269728E-05 -1.761812418533E-05
   3  26             8.481592699283E-06  4.153040422983E-05 -1.761809487988E-05
   4  26            -8.481592665532E-06  4.153040416366E-05  1.761809485412E-05
   5 251            -2.418302352541E-05 -1.132982551058E-04 -3.634339631020E-06
   6 251             2.418302355062E-05 -1.132982551217E-04  3.634339649672E-06
   7 251             2.418300011808E-05  1.132982813319E-04  3.634302935929E-06
   8 251            -2.418300013030E-05  1.132982812746E-04 -3.634302961686E-06
   9  16            -1.636571687946E-05  4.200434944956E-05  1.084582190281E-04
  10  16             1.636571684749E-05  4.200434940671E-05 -1.084582190654E-04
  11  16             1.636569472474E-05 -4.200427713186E-05 -1.084582261717E-04
  12  16            -1.636569470520E-05 -4.200427712653E-05  1.084582261983E-04

 RESULTANT FORCE     4.107825191113E-15 -1.110223024625E-15 -4.440892098501E-15

 ATOMIC PART

 SYMMETRY ALLOWED FORCES (ANALYTICAL) (DIRECTION, FORCE)

    1 -1.6861582E-05    2 -8.3060907E-05    3  3.5284975E-05    4 -4.8386777E-05
    5 -2.2659654E-04    6 -7.1291802E-06    7 -3.2105937E-05    8  8.4008627E-05
    9  2.1700990E-04

 CELL PART

 GRADIENT WITH RESPECT TO THE CELL PARAMETER IN HARTREE/BOHR
ORDER: -D/DA1X, -D/DA1Y, -D/DA1Z
       -D/DA2X, -D/DA2Y, -D/DA2Z
       -D/DA3X, -D/DA3Y, -D/DA3Z
  0.320624351815E-04  0.548379728184E-14  0.393195850279E-04
  0.941370242379E-14  0.158199377012E-03 -0.533179614082E-14
 -0.240685681766E-03 -0.627076318413E-14 -0.752788411447E-04

STRESS TENSOR, IN HARTREE/BOHR^3:
ORDER: 11 12 13
       21 22 23
       31 32 33
  0.503231117219E-06 -0.796765214621E-16  0.188420323654E-05
 -0.263714343179E-16 -0.133898363734E-05  0.489767262103E-16
 -0.913978997234E-07  0.451278059847E-16  0.588601726315E-06

PRESSURE FROM THE STRESS TENSOR,
IN HARTREE/BOHR^3:  0.82384E-07
PRESSURE IN GIGAPASCAL:  0.2424E-02
CONVERSION FACTOR: 1 HARTREE/BOHR^3= 29421 GIGAPASCAL
WHEN USING VALUES FOR BOHR RADIUS AND HARTREE
FROM IUPAC WEBSITE, APRIL 2009
ENTHALPY: -7.6074232219114E+03

 SYMMETRY ALLOWED FORCES (ANALYTICAL) (DIRECTION, FORCE)

    1  1.7252250E-05    2 -8.4455464E-05    3  1.6945621E-04    4 -1.5879003E-04
 TTTTTTTTTTTTTTTTTTTTTTTTTTTTTT TOTGRA      TELAPSE      439.60 TCPU      433.58
 INFORMATION **** optc001 **** GEOMETRY OUTPUT FILE
 CLASSICAL MODEL (SCHLEGEL) USED AS INITIAL HESSIAN MATRIX
 REFERENCE GEOMETRY DEFINED

 MAX GRADIENT      0.000227  THRESHOLD              0.000045 CONVERGED NO
 RMS GRADIENT      0.000117  THRESHOLD              0.000030 CONVERGED NO

 GRADIENT NORM     0.000423  GRADIENT THRESHOLD     0.500000

 EIGENVALUES OF THE ESTIMATED HESSIAN
  0.1267      0.1531      0.1642      0.1677      0.2086      0.2437    
  0.2758      0.2927      0.3174      0.4285      0.7055      0.7358    
   1.001    

 INITIAL TRUST RADIUS    0.5000000000E+00

 PREDICTED ENERGY CHANGE    -0.510E-06

 INITIAL DISPLACEMENTS
 -0.000046 -0.000389  0.000274 -0.000452 -0.001083 -0.000079 -0.000083  0.000593
  0.001083  0.000052 -0.000390  0.001170 -0.001196
 TTTTTTTTTTTTTTTTTTTTTTTTTTTTTT OPTI        TELAPSE      442.92 TCPU      436.82

 OPTOPTOPTOPTOPTOPTOPTOPTOPTOPTOPTOPTOPTOPTOPTOPTOPTOPTOPTOPTOPTOPTOPTOPTOPTOPT

 - INFORMATION ON SCF MOVED TO SCFOUT.LOG
 GEOMETRY OPTIMIZATION INFORMATION STORED IN OPTINFO.DAT

 OPTOPTOPTOPTOPTOPTOPTOPTOPTOPTOPTOPTOPTOPTOPTOPTOPTOPTOPTOPTOPTOPTOPTOPTOPTOPT
 *******************************************************************************
 COORDINATE AND CELL OPTIMIZATION - POINT    2
 *******************************************************************************
 LATTICE PARAMETERS (ANGSTROMS AND DEGREES) - BOHR = 0.5291772083 ANGSTROM
 PRIMITIVE CELL - CENTRING CODE 1/0 VOLUME=   197.606891 - DENSITY  7.019 g/cm^3
         A              B              C           ALPHA      BETA       GAMMA 
     5.99353600     5.97320674     5.97538878    90.000000  67.477688  90.000000
 *******************************************************************************
 ATOMS IN THE ASYMMETRIC UNIT    3 - ATOMS IN THE UNIT CELL:   12
     ATOM                 X/A                 Y/B                 Z/C    
 *******************************************************************************
      1 T  26 FE   -2.991213246690E-01  4.863138146077E-01 -1.960390967079E-01
      2 F  26 FE    2.991213246694E-01 -1.368618539227E-02 -3.039609032930E-01
      3 F  26 FE    2.991213246690E-01 -4.863138146077E-01  1.960390967079E-01
      4 F  26 FE   -2.991213246687E-01  1.368618539227E-02  3.039609032912E-01
      5 T 251 SB    1.477538940326E-01  3.686837665618E-01 -3.704593101596E-01
      6 F 251 SB   -1.477538940322E-01 -1.313162334382E-01 -1.295406898413E-01
      7 F 251 SB   -1.477538940326E-01 -3.686837665618E-01  3.704593101596E-01
      8 F 251 SB    1.477538940329E-01  1.313162334382E-01  1.295406898395E-01
      9 T  16 S    -3.559840190080E-01  3.678840629413E-01  1.751781786817E-01
     10 F  16 S     3.559840190083E-01 -1.321159370587E-01  3.248218213174E-01
     11 F  16 S     3.559840190080E-01 -3.678840629413E-01 -1.751781786817E-01
     12 F  16 S    -3.559840190076E-01  1.321159370587E-01 -3.248218213192E-01

 T = ATOM BELONGING TO THE ASYMMETRIC UNIT

 TOTAL ENERGY(DFT)(AU)( 15) -7.6074233297973E+03     DE (AU)    1.973E-06

 UPDATED TRUST RADIUS     0.617E-03
 ENERGY CHANGE > 0: STEP REJECTED. RETRYING WITH A NEW STEP

 EIGENVALUES OF THE ESTIMATED HESSIAN
  0.1267      0.1531      0.1642      0.1677      0.2086      0.2437    
  0.2758      0.2927      0.3174      0.4285      0.7055      0.7358    
   1.001    
 NEWTON STEP ( 0.2468834256E-02) EXCEEDS TRUST RADIUS ( 0.6172085640E-03)
 LEVEL SHIFT     0.5557014407E-01

 PREDICTED ENERGY CHANGE    -0.220E-06

 MAX GRADIENT      0.000227  THRESHOLD              0.000045 CONVERGED NO
 RMS GRADIENT      0.000117  THRESHOLD              0.000030 CONVERGED NO
 MAX DISPLAC.      0.000320  THRESHOLD              0.000180 CONVERGED NO
 RMS DISPLAC.      0.000171  THRESHOLD              0.000120 CONVERGED NO
 TTTTTTTTTTTTTTTTTTTTTTTTTTTTTT OPTI        TELAPSE      687.19 TCPU      678.97
 *******************************************************************************
 COORDINATE AND CELL OPTIMIZATION - POINT    3
 *******************************************************************************
 LATTICE PARAMETERS (ANGSTROMS AND DEGREES) - BOHR = 0.5291772083 ANGSTROM
 PRIMITIVE CELL - CENTRING CODE 1/0 VOLUME=   197.605547 - DENSITY  7.019 g/cm^3
         A              B              C           ALPHA      BETA       GAMMA 
     5.99365689     5.97278702     5.97587345    90.000000  67.472464  90.000000
 *******************************************************************************
 ATOMS IN THE ASYMMETRIC UNIT    3 - ATOMS IN THE UNIT CELL:   12
     ATOM                 X/A                 Y/B                 Z/C    
 *******************************************************************************
      1 T  26 FE   -2.991158830486E-01  4.863270937145E-01 -1.960490610528E-01
      2 F  26 FE    2.991158830489E-01 -1.367290628546E-02 -3.039509389481E-01
      3 F  26 FE    2.991158830486E-01 -4.863270937145E-01  1.960490610528E-01
      4 F  26 FE   -2.991158830482E-01  1.367290628546E-02  3.039509389463E-01
      5 T 251 SB    1.477674192542E-01  3.687207745350E-01 -3.704563920104E-01
      6 F 251 SB   -1.477674192539E-01 -1.312792254650E-01 -1.295436079905E-01
      7 F 251 SB   -1.477674192542E-01 -3.687207745350E-01  3.704563920104E-01
      8 F 251 SB    1.477674192546E-01  1.312792254650E-01  1.295436079887E-01
      9 T  16 S    -3.559659302694E-01  3.678642046023E-01  1.751388000981E-01
     10 F  16 S     3.559659302698E-01 -1.321357953977E-01  3.248611999010E-01
     11 F  16 S     3.559659302694E-01 -3.678642046023E-01 -1.751388000981E-01
     12 F  16 S    -3.559659302691E-01  1.321357953977E-01 -3.248611999028E-01

 T = ATOM BELONGING TO THE ASYMMETRIC UNIT

 TOTAL ENERGY(DFT)(AU)( 20) -7.6074233312956E+03     DE (AU)    4.748E-07

 UPDATED TRUST RADIUS     0.154E-03
 ENERGY CHANGE > 0: STEP REJECTED. RETRYING WITH A NEW STEP

 EIGENVALUES OF THE ESTIMATED HESSIAN
  0.1267      0.1531      0.1642      0.1677      0.2086      0.2437    
  0.2758      0.2927      0.3174      0.4285      0.7055      0.7358    
   1.001    
 NEWTON STEP ( 0.2468834256E-02) EXCEEDS TRUST RADIUS ( 0.1543021410E-03)
 LEVEL SHIFT    -0.1579012113E+00

 PREDICTED ENERGY CHANGE    -0.626E-07

 MAX GRADIENT      0.000227  THRESHOLD              0.000045 CONVERGED NO
 RMS GRADIENT      0.000117  THRESHOLD              0.000030 CONVERGED NO
 MAX DISPLAC.      0.000074  THRESHOLD              0.000180 CONVERGED YES
 RMS DISPLAC.      0.000043  THRESHOLD              0.000120 CONVERGED YES
 TTTTTTTTTTTTTTTTTTTTTTTTTTTTTT OPTI        TELAPSE     1117.64 TCPU     1105.90
 *******************************************************************************
 COORDINATE AND CELL OPTIMIZATION - POINT    4
 *******************************************************************************
 LATTICE PARAMETERS (ANGSTROMS AND DEGREES) - BOHR = 0.5291772083 ANGSTROM
 PRIMITIVE CELL - CENTRING CODE 1/0 VOLUME=   197.605405 - DENSITY  7.019 g/cm^3
         A              B              C           ALPHA      BETA       GAMMA 
     5.99368024     5.97268010     5.97601556    90.000000  67.471015  90.000000
 *******************************************************************************
 ATOMS IN THE ASYMMETRIC UNIT    3 - ATOMS IN THE UNIT CELL:   12
     ATOM                 X/A                 Y/B                 Z/C    
 *******************************************************************************
      1 T  26 FE   -2.991147609208E-01  4.863298553711E-01 -1.960513798317E-01
      2 F  26 FE    2.991147609211E-01 -1.367014462892E-02 -3.039486201692E-01
      3 F  26 FE    2.991147609208E-01 -4.863298553711E-01  1.960513798317E-01
      4 F  26 FE   -2.991147609204E-01  1.367014462892E-02  3.039486201674E-01
      5 T 251 SB    1.477713766237E-01  3.687284492984E-01 -3.704557421042E-01
      6 F 251 SB   -1.477713766234E-01 -1.312715507016E-01 -1.295442578967E-01
      7 F 251 SB   -1.477713766237E-01 -3.687284492984E-01  3.704557421042E-01
      8 F 251 SB    1.477713766241E-01  1.312715507016E-01  1.295442578949E-01
      9 T  16 S    -3.559621603355E-01  3.678594313091E-01  1.751296945314E-01
     10 F  16 S     3.559621603359E-01 -1.321405686909E-01  3.248703054677E-01
     11 F  16 S     3.559621603355E-01 -3.678594313091E-01 -1.751296945314E-01
     12 F  16 S    -3.559621603352E-01  1.321405686909E-01 -3.248703054695E-01

 T = ATOM BELONGING TO THE ASYMMETRIC UNIT

 TOTAL ENERGY(DFT)(AU)( 15) -7.6074233316663E+03     DE (AU)    1.041E-07

 UPDATED TRUST RADIUS     0.386E-04
 ENERGY CHANGE > 0: STEP REJECTED. RETRYING WITH A NEW STEP

 EIGENVALUES OF THE ESTIMATED HESSIAN
  0.1267      0.1531      0.1642      0.1677      0.2086      0.2437    
  0.2758      0.2927      0.3174      0.4285      0.7055      0.7358    
   1.001    
 NEWTON STEP ( 0.2468834256E-02) EXCEEDS TRUST RADIUS ( 0.3857553525E-04)
 LEVEL SHIFT    -0.1011786633E+01

 PREDICTED ENERGY CHANGE    -0.161E-07

 MAX GRADIENT      0.000227  THRESHOLD              0.000045 CONVERGED NO
 RMS GRADIENT      0.000117  THRESHOLD              0.000030 CONVERGED NO
 MAX DISPLAC.      0.000020  THRESHOLD              0.000180 CONVERGED YES
 RMS DISPLAC.      0.000011  THRESHOLD              0.000120 CONVERGED YES
 TTTTTTTTTTTTTTTTTTTTTTTTTTTTTT OPTI        TELAPSE     1471.80 TCPU     1457.32
 *******************************************************************************
 COORDINATE AND CELL OPTIMIZATION - POINT    5
 *******************************************************************************
 LATTICE PARAMETERS (ANGSTROMS AND DEGREES) - BOHR = 0.5291772083 ANGSTROM
 PRIMITIVE CELL - CENTRING CODE 1/0 VOLUME=   197.605310 - DENSITY  7.019 g/cm^3
         A              B              C           ALPHA      BETA       GAMMA 
     5.99368802     5.97265408     5.97604469    90.000000  67.470698  90.000000
 *******************************************************************************
 ATOMS IN THE ASYMMETRIC UNIT    3 - ATOMS IN THE UNIT CELL:   12
     ATOM                 X/A                 Y/B                 Z/C    
 *******************************************************************************
      1 T  26 FE   -2.991144001117E-01  4.863307146255E-01 -1.960520226319E-01
      2 F  26 FE    2.991144001121E-01 -1.366928537455E-02 -3.039479773690E-01
      3 F  26 FE    2.991144001117E-01 -4.863307146255E-01  1.960520226319E-01
      4 F  26 FE   -2.991144001114E-01  1.366928537455E-02  3.039479773672E-01
      5 T 251 SB    1.477721877078E-01  3.687308525567E-01 -3.704555645702E-01
      6 F 251 SB   -1.477721877074E-01 -1.312691474433E-01 -1.295444354307E-01
      7 F 251 SB   -1.477721877078E-01 -3.687308525567E-01  3.704555645702E-01
      8 F 251 SB    1.477721877081E-01  1.312691474433E-01  1.295444354289E-01
      9 T  16 S    -3.559609753106E-01  3.678581823822E-01  1.751271906608E-01
     10 F  16 S     3.559609753109E-01 -1.321418176178E-01  3.248728093383E-01
     11 F  16 S     3.559609753106E-01 -3.678581823822E-01 -1.751271906608E-01
[...]
   25-  25      343.1714 (Ag )    7.53    0.00    3.26   87.48    0.00    8.51
   26-  26      344.6549 (Bg )    0.00   15.22    0.00    0.00    1.83    0.00
   29-  29      361.2600 (Bg )    0.00   44.04    0.00    0.00    9.78    0.00
   30-  30      366.9191 (Ag )   84.32    0.00   62.06  372.26    0.00   68.66
   32-  32      373.6400 (Bg )    0.00    0.01    0.00    0.00    5.55    0.00
   33-  33      418.5862 (Ag )   27.67    0.00  122.17   97.73    0.00  833.53
   34-  34      434.5152 (Bg )    0.00  288.88    0.00    0.00  245.07    0.00

 <RAMAN><RAMAN><RAMAN><RAMAN><RAMAN><RAMAN><RAMAN><RAMAN><RAMAN><RAMAN><RAMAN>
 <RAMAN><RAMAN><RAMAN><RAMAN><RAMAN><RAMAN><RAMAN><RAMAN><RAMAN><RAMAN><RAMAN>


 NORMAL MODES NORMALIZED TO CLASSICAL AMPLITUDES (IN BOHR)

 FREQ(CM**-1)      0.00      0.00      0.00    117.75    125.44    138.80

 AT.   1 FE X    -0.0334   -0.0000    0.0090   -0.0041   -0.0128   -0.0132
            Y     0.0000   -0.0346   -0.0000    0.0105    0.0095    0.0034
            Z     0.0090    0.0000    0.0334   -0.0092   -0.0017    0.0142
 AT.   2 FE X    -0.0334    0.0000    0.0090    0.0041   -0.0128    0.0132
            Y    -0.0000   -0.0346    0.0000    0.0105   -0.0095    0.0034
            Z     0.0090   -0.0000    0.0334    0.0092   -0.0017   -0.0142
 AT.   3 FE X    -0.0334   -0.0000    0.0090    0.0041    0.0128   -0.0132
            Y     0.0000   -0.0346   -0.0000   -0.0105   -0.0095    0.0034
            Z     0.0090    0.0000    0.0334    0.0092    0.0017    0.0142
 AT.   4 FE X    -0.0334    0.0000    0.0090   -0.0041    0.0128    0.0132
            Y    -0.0000   -0.0346    0.0000   -0.0105    0.0095    0.0034
            Z     0.0090   -0.0000    0.0334   -0.0092    0.0017   -0.0142
 AT.   5 SB X    -0.0334   -0.0000    0.0090    0.0136   -0.0312   -0.0342
            Y    -0.0000   -0.0346    0.0000    0.0276   -0.0260   -0.0016
            Z     0.0090   -0.0000    0.0334    0.0304   -0.0022    0.0189
 AT.   6 SB X    -0.0334    0.0000    0.0090   -0.0136   -0.0312    0.0342
            Y     0.0000   -0.0346   -0.0000    0.0276    0.0260   -0.0016
            Z     0.0090    0.0000    0.0334   -0.0304   -0.0022   -0.0189
 AT.   7 SB X    -0.0334   -0.0000    0.0090   -0.0136    0.0312   -0.0342
            Y    -0.0000   -0.0346    0.0000   -0.0276    0.0260   -0.0016
            Z     0.0090   -0.0000    0.0334   -0.0304    0.0022    0.0189
 AT.   8 SB X    -0.0334    0.0000    0.0090    0.0136    0.0312    0.0342
            Y     0.0000   -0.0346   -0.0000   -0.0276   -0.0260   -0.0016
            Z     0.0090    0.0000    0.0334    0.0304    0.0022   -0.0189
 AT.   9 S  X    -0.0334    0.0000    0.0090   -0.0073    0.0221   -0.0139
            Y     0.0000   -0.0346    0.0000   -0.0167    0.0172    0.0000
            Z     0.0090    0.0000    0.0334   -0.0149   -0.0009    0.0108
 AT.  10 S  X    -0.0334   -0.0000    0.0090    0.0073    0.0221    0.0139
            Y    -0.0000   -0.0346   -0.0000   -0.0167   -0.0172    0.0000
            Z     0.0090   -0.0000    0.0334    0.0149   -0.0009   -0.0108
 AT.  11 S  X    -0.0334    0.0000    0.0090    0.0073   -0.0221   -0.0139
            Y     0.0000   -0.0346    0.0000    0.0167   -0.0172    0.0000
            Z     0.0090    0.0000    0.0334    0.0149    0.0009    0.0108
 AT.  12 S  X    -0.0334   -0.0000    0.0090   -0.0073   -0.0221    0.0139
            Y    -0.0000   -0.0346   -0.0000    0.0167    0.0172    0.0000
            Z     0.0090   -0.0000    0.0334   -0.0149    0.0009   -0.0108

 FREQ(CM**-1)    150.58    152.14    152.88    173.18    176.02    177.18

 AT.   1 FE X    -0.0024   -0.0152   -0.0072    0.0023    0.0065   -0.0113
            Y     0.0066   -0.0078   -0.0088    0.0088    0.0023   -0.0141
            Z    -0.0164   -0.0020   -0.0132    0.0076    0.0034   -0.0008
 AT.   2 FE X     0.0024   -0.0152    0.0072   -0.0023    0.0065   -0.0113
            Y     0.0066    0.0078   -0.0088    0.0088   -0.0023    0.0141
            Z     0.0164   -0.0020    0.0132   -0.0076    0.0034   -0.0008
 AT.   3 FE X    -0.0024    0.0152    0.0072   -0.0023    0.0065    0.0113
            Y     0.0066    0.0078    0.0088   -0.0088    0.0023    0.0141
            Z    -0.0164    0.0020    0.0132   -0.0076    0.0034    0.0008
 AT.   4 FE X     0.0024    0.0152   -0.0072    0.0023    0.0065    0.0113
            Y     0.0066   -0.0078    0.0088   -0.0088   -0.0023   -0.0141
            Z     0.0164    0.0020   -0.0132    0.0076    0.0034    0.0008
 AT.   5 SB X    -0.0207   -0.0205   -0.0066   -0.0342   -0.0023   -0.0075
            Y    -0.0028    0.0239   -0.0267    0.0108   -0.0369    0.0141
            Z    -0.0313    0.0216    0.0267    0.0064   -0.0020   -0.0304
 AT.   6 SB X     0.0207   -0.0205    0.0066    0.0342   -0.0023   -0.0075
            Y    -0.0028   -0.0239   -0.0267    0.0108    0.0369   -0.0141
            Z     0.0313    0.0216   -0.0267   -0.0064   -0.0020   -0.0304
 AT.   7 SB X    -0.0207    0.0205    0.0066    0.0342   -0.0023    0.0075
            Y    -0.0028   -0.0239    0.0267   -0.0108   -0.0369   -0.0141
            Z    -0.0313   -0.0216   -0.0267   -0.0064   -0.0020    0.0304
 AT.   8 SB X     0.0207    0.0205   -0.0066   -0.0342   -0.0023    0.0075
            Y    -0.0028    0.0239    0.0267   -0.0108    0.0369    0.0141
            Z     0.0313   -0.0216    0.0267    0.0064   -0.0020    0.0304
 AT.   9 S  X    -0.0042    0.0041   -0.0007   -0.0034   -0.0026    0.0136
            Y    -0.0011   -0.0118    0.0076   -0.0019   -0.0064   -0.0046
            Z    -0.0180   -0.0016   -0.0049    0.0129    0.0018   -0.0078
 AT.  10 S  X     0.0042    0.0041    0.0007    0.0034   -0.0026    0.0136
            Y    -0.0011    0.0118    0.0076   -0.0019    0.0064    0.0046
            Z     0.0180   -0.0016    0.0049   -0.0129    0.0018   -0.0078
 AT.  11 S  X    -0.0042   -0.0041    0.0007    0.0034   -0.0026   -0.0136
            Y    -0.0011    0.0118   -0.0076    0.0019   -0.0064    0.0046
            Z    -0.0180    0.0016    0.0049   -0.0129    0.0018    0.0078
 AT.  12 S  X     0.0042   -0.0041   -0.0007   -0.0034   -0.0026   -0.0136
            Y    -0.0011   -0.0118   -0.0076    0.0019    0.0064   -0.0046
            Z     0.0180    0.0016   -0.0049    0.0129    0.0018    0.0078

 FREQ(CM**-1)    217.24    231.78    237.26    245.70    246.92    252.72

 AT.   1 FE X    -0.0164    0.0170   -0.0174   -0.0253   -0.0271   -0.0316
            Y     0.0024   -0.0236    0.0073    0.0095    0.0030   -0.0182
            Z    -0.0254    0.0034   -0.0231    0.0169   -0.0116   -0.0164
 AT.   2 FE X    -0.0164   -0.0170    0.0174   -0.0253   -0.0271    0.0316
            Y    -0.0024   -0.0236    0.0073   -0.0095   -0.0030   -0.0182
            Z    -0.0254   -0.0034    0.0231    0.0169   -0.0116    0.0164
 AT.   3 FE X    -0.0164    0.0170    0.0174   -0.0253    0.0271   -0.0316
            Y     0.0024   -0.0236   -0.0073    0.0095   -0.0030   -0.0182
            Z    -0.0254    0.0034    0.0231    0.0169    0.0116   -0.0164
 AT.   4 FE X    -0.0164   -0.0170   -0.0174   -0.0253    0.0271    0.0316
            Y    -0.0024   -0.0236   -0.0073   -0.0095    0.0030   -0.0182
            Z    -0.0254   -0.0034   -0.0231    0.0169    0.0116    0.0164
 AT.   5 SB X     0.0111   -0.0071   -0.0076    0.0168    0.0130    0.0038
            Y    -0.0046    0.0180    0.0011   -0.0013   -0.0030    0.0099
            Z     0.0184   -0.0014   -0.0084   -0.0109    0.0047    0.0017
 AT.   6 SB X     0.0111    0.0071    0.0076    0.0168    0.0130   -0.0038
            Y     0.0046    0.0180    0.0011    0.0013    0.0030    0.0099
            Z     0.0184    0.0014    0.0084   -0.0109    0.0047   -0.0017
 AT.   7 SB X     0.0111   -0.0071    0.0076    0.0168   -0.0130    0.0038
            Y    -0.0046    0.0180   -0.0011   -0.0013    0.0030    0.0099
            Z     0.0184   -0.0014    0.0084   -0.0109   -0.0047    0.0017
 AT.   8 SB X     0.0111    0.0071   -0.0076    0.0168   -0.0130   -0.0038
            Y     0.0046    0.0180   -0.0011    0.0013   -0.0030    0.0099
            Z     0.0184    0.0014   -0.0084   -0.0109   -0.0047   -0.0017
 AT.   9 S  X    -0.0133    0.0204    0.0159   -0.0193    0.0266   -0.0205
            Y     0.0089   -0.0268   -0.0074    0.0051   -0.0018   -0.0055
            Z    -0.0252    0.0017   -0.0402    0.0116   -0.0285   -0.0062
 AT.  10 S  X    -0.0133   -0.0204   -0.0159   -0.0193    0.0266    0.0205
            Y    -0.0089   -0.0268   -0.0074   -0.0051    0.0018   -0.0055
            Z    -0.0252   -0.0017    0.0402    0.0116   -0.0285    0.0062
 AT.  11 S  X    -0.0133    0.0204   -0.0159   -0.0193   -0.0266   -0.0205
            Y     0.0089   -0.0268    0.0074    0.0051    0.0018   -0.0055
            Z    -0.0252    0.0017    0.0402    0.0116    0.0285   -0.0062
 AT.  12 S  X    -0.0133   -0.0204    0.0159   -0.0193   -0.0266    0.0205
            Y    -0.0089   -0.0268    0.0074   -0.0051   -0.0018   -0.0055
            Z    -0.0252   -0.0017   -0.0402    0.0116    0.0285    0.0062

 FREQ(CM**-1)    264.65    267.76    273.35    278.62    330.24    332.00

 AT.   1 FE X     0.0149    0.0115   -0.0083    0.0026   -0.0220   -0.0118
            Y     0.0019    0.0359   -0.0423    0.0376   -0.0093   -0.0024
            Z    -0.0347    0.0056    0.0003    0.0108    0.0069    0.0111
 AT.   2 FE X    -0.0149   -0.0115   -0.0083    0.0026    0.0220    0.0118
            Y     0.0019    0.0359    0.0423   -0.0376   -0.0093   -0.0024
            Z     0.0347   -0.0056    0.0003    0.0108   -0.0069   -0.0111
 AT.   3 FE X     0.0149   -0.0115   -0.0083   -0.0026    0.0220   -0.0118
            Y     0.0019   -0.0359   -0.0423   -0.0376    0.0093   -0.0024
            Z    -0.0347   -0.0056    0.0003   -0.0108   -0.0069    0.0111
 AT.   4 FE X    -0.0149    0.0115   -0.0083   -0.0026   -0.0220    0.0118
            Y     0.0019   -0.0359    0.0423    0.0376    0.0093   -0.0024
            Z     0.0347    0.0056    0.0003   -0.0108    0.0069   -0.0111
 AT.   5 SB X    -0.0039    0.0022    0.0041   -0.0007   -0.0004   -0.0005
            Y    -0.0022   -0.0102   -0.0016    0.0102   -0.0024   -0.0012
            Z     0.0131    0.0002   -0.0011   -0.0030   -0.0020    0.0027
 AT.   6 SB X     0.0039   -0.0022    0.0041   -0.0007    0.0004    0.0005
            Y    -0.0022   -0.0102    0.0016   -0.0102   -0.0024   -0.0012
            Z    -0.0131   -0.0002   -0.0011   -0.0030    0.0020   -0.0027
 AT.   7 SB X    -0.0039   -0.0022    0.0041    0.0007    0.0004   -0.0005
            Y    -0.0022    0.0102   -0.0016   -0.0102    0.0024   -0.0012
            Z     0.0131   -0.0002   -0.0011    0.0030    0.0020    0.0027
 AT.   8 SB X     0.0039    0.0022    0.0041    0.0007   -0.0004    0.0005
            Y    -0.0022    0.0102    0.0016    0.0102    0.0024   -0.0012
            Z    -0.0131    0.0002   -0.0011    0.0030   -0.0020   -0.0027
 AT.   9 S  X     0.0060   -0.0007   -0.0010    0.0063   -0.0168    0.0276
            Y     0.0051   -0.0236   -0.0098    0.0127   -0.0371    0.0086
            Z    -0.0163   -0.0019    0.0038   -0.0072    0.0086   -0.0387
 AT.  10 S  X    -0.0060    0.0007   -0.0010    0.0063    0.0168   -0.0276
            Y     0.0051   -0.0236    0.0098   -0.0127   -0.0371    0.0086
            Z     0.0163    0.0019    0.0038   -0.0072   -0.0086    0.0387
 AT.  11 S  X     0.0060    0.0007   -0.0010   -0.0063    0.0168    0.0276
            Y     0.0051    0.0236   -0.0098   -0.0127    0.0371    0.0086
            Z    -0.0163    0.0019    0.0038    0.0072   -0.0086   -0.0387
 AT.  12 S  X    -0.0060   -0.0007   -0.0010   -0.0063   -0.0168   -0.0276
            Y     0.0051    0.0236    0.0098    0.0127    0.0371    0.0086
            Z     0.0163   -0.0019    0.0038    0.0072    0.0086    0.0387

 FREQ(CM**-1)    343.17    344.65    346.69    350.60    361.26    366.92

 AT.   1 FE X     0.0237   -0.0082   -0.0091   -0.0010    0.0227    0.0106
            Y    -0.0108   -0.0033   -0.0030    0.0049   -0.0055   -0.0127
            Z    -0.0149    0.0338    0.0177    0.0097    0.0043    0.0218
 AT.   2 FE X    -0.0237   -0.0082   -0.0091   -0.0010    0.0227   -0.0106
            Y    -0.0108    0.0033    0.0030   -0.0049    0.0055   -0.0127
            Z     0.0149    0.0338    0.0177    0.0097    0.0043   -0.0218
 AT.   3 FE X    -0.0237    0.0082   -0.0091   -0.0010   -0.0227   -0.0106
            Y     0.0108    0.0033   -0.0030    0.0049    0.0055    0.0127
            Z     0.0149   -0.0338    0.0177    0.0097   -0.0043   -0.0218
 AT.   4 FE X     0.0237    0.0082   -0.0091   -0.0010   -0.0227    0.0106
            Y     0.0108   -0.0033    0.0030   -0.0049   -0.0055    0.0127
            Z    -0.0149   -0.0338    0.0177    0.0097   -0.0043    0.0218
 AT.   5 SB X    -0.0028    0.0022   -0.0024    0.0014   -0.0037   -0.0014
            Y    -0.0002   -0.0036   -0.0017    0.0020   -0.0009   -0.0008
            Z    -0.0027    0.0011   -0.0001    0.0016    0.0017    0.0031
 AT.   6 SB X     0.0028    0.0022   -0.0024    0.0014   -0.0037    0.0014
            Y    -0.0002    0.0036    0.0017   -0.0020    0.0009   -0.0008
            Z     0.0027    0.0011   -0.0001    0.0016    0.0017   -0.0031
 AT.   7 SB X     0.0028   -0.0022   -0.0024    0.0014    0.0037    0.0014
            Y     0.0002    0.0036   -0.0017    0.0020    0.0009    0.0008
            Z     0.0027   -0.0011   -0.0001    0.0016   -0.0017   -0.0031
 AT.   8 SB X    -0.0028   -0.0022   -0.0024    0.0014    0.0037   -0.0014
            Y     0.0002   -0.0036    0.0017   -0.0020   -0.0009    0.0008
            Z    -0.0027   -0.0011   -0.0001    0.0016   -0.0017    0.0031
 AT.   9 S  X    -0.0283    0.0101    0.0252   -0.0035    0.0094    0.0198
            Y    -0.0137   -0.0196    0.0202   -0.0435   -0.0085   -0.0135
            Z    -0.0111    0.0056   -0.0305   -0.0231   -0.0374   -0.0251
 AT.  10 S  X     0.0283    0.0101    0.0252   -0.0035    0.0094   -0.0198
            Y    -0.0137    0.0196   -0.0202    0.0435    0.0085   -0.0135
            Z     0.0111    0.0056   -0.0305   -0.0231   -0.0374    0.0251
 AT.  11 S  X     0.0283   -0.0101    0.0252   -0.0035   -0.0094   -0.0198
            Y     0.0137    0.0196    0.0202   -0.0435    0.0085    0.0135
            Z     0.0111   -0.0056   -0.0305   -0.0231    0.0374    0.0251
 AT.  12 S  X    -0.0283   -0.0101    0.0252   -0.0035   -0.0094    0.0198
            Y     0.0137   -0.0196   -0.0202    0.0435   -0.0085    0.0135
            Z    -0.0111   -0.0056   -0.0305   -0.0231    0.0374   -0.0251

 FREQ(CM**-1)    369.23    373.64    418.59    434.52    454.90    458.38

 AT.   1 FE X     0.0027    0.0029   -0.0079   -0.0122   -0.0137   -0.0163
            Y     0.0165   -0.0136    0.0058   -0.0022    0.0124    0.0052
            Z     0.0043    0.0102    0.0148    0.0085   -0.0084   -0.0094
 AT.   2 FE X    -0.0027    0.0029    0.0079   -0.0122    0.0137   -0.0163
            Y     0.0165    0.0136    0.0058    0.0022    0.0124   -0.0052
            Z    -0.0043    0.0102   -0.0148    0.0085    0.0084   -0.0094
 AT.   3 FE X     0.0027   -0.0029    0.0079    0.0122   -0.0137   -0.0163
            Y     0.0165    0.0136   -0.0058    0.0022    0.0124    0.0052
            Z     0.0043   -0.0102   -0.0148   -0.0085   -0.0084   -0.0094
 AT.   4 FE X    -0.0027   -0.0029   -0.0079    0.0122    0.0137   -0.0163
            Y     0.0165   -0.0136   -0.0058   -0.0022    0.0124   -0.0052
            Z    -0.0043   -0.0102    0.0148   -0.0085    0.0084   -0.0094
 AT.   5 SB X     0.0026    0.0029   -0.0001   -0.0015    0.0002   -0.0007
            Y     0.0016    0.0035   -0.0009   -0.0014   -0.0011   -0.0013
            Z     0.0027    0.0032   -0.0004   -0.0009    0.0003    0.0002
 AT.   6 SB X    -0.0026    0.0029    0.0001   -0.0015   -0.0002   -0.0007
            Y     0.0016   -0.0035   -0.0009    0.0014   -0.0011    0.0013
            Z    -0.0027    0.0032    0.0004   -0.0009   -0.0003    0.0002
 AT.   7 SB X     0.0026   -0.0029    0.0001    0.0015    0.0002   -0.0007
            Y     0.0016   -0.0035    0.0009    0.0014   -0.0011   -0.0013
            Z     0.0027   -0.0032    0.0004    0.0009    0.0003    0.0002
 AT.   8 SB X    -0.0026   -0.0029   -0.0001    0.0015   -0.0002   -0.0007
            Y     0.0016    0.0035    0.0009   -0.0014   -0.0011    0.0013
            Z    -0.0027   -0.0032   -0.0004    0.0009   -0.0003    0.0002
 AT.   9 S  X    -0.0174    0.0150   -0.0294   -0.0341    0.0271    0.0310
            Y    -0.0350    0.0407    0.0189    0.0115   -0.0174   -0.0130
            Z    -0.0209    0.0023   -0.0219   -0.0213    0.0175    0.0156
 AT.  10 S  X     0.0174    0.0150    0.0294   -0.0341   -0.0271    0.0310
            Y    -0.0350   -0.0407    0.0189   -0.0115   -0.0174    0.0130
            Z     0.0209    0.0023    0.0219   -0.0213   -0.0175    0.0156
 AT.  11 S  X    -0.0174   -0.0150    0.0294    0.0341    0.0271    0.0310
            Y    -0.0350   -0.0407   -0.0189   -0.0115   -0.0174   -0.0130
            Z    -0.0209   -0.0023    0.0219    0.0213    0.0175    0.0156
 AT.  12 S  X     0.0174   -0.0150   -0.0294    0.0341   -0.0271    0.0310
            Y    -0.0350    0.0407   -0.0189    0.0115   -0.0174    0.0130
            Z     0.0209   -0.0023   -0.0219    0.0213   -0.0175    0.0156

 *******************************************************************************

 VIBRATIONAL TEMPERATURES (K) [MODE NUMBER;IRREP]

 TO MODES
   169.4 [   4;Ag ]   180.5 [   5;Bg ]   199.7 [   6;Au ]   216.7 [   7;Au ]
   218.9 [   8;Bg ]   220.0 [   9;Ag ]   249.2 [  10;Ag ]   253.2 [  11;Bu ]
   254.9 [  12;Bg ]   312.6 [  13;Bu ]   333.5 [  14;Au ]   341.4 [  15;Ag ]
   353.5 [  16;Bu ]   355.3 [  17;Bg ]   363.6 [  18;Au ]   380.8 [  19;Au ]
   385.2 [  20;Ag ]   393.3 [  21;Bu ]   400.9 [  22;Bg ]   475.1 [  23;Ag ]
   477.7 [  24;Au ]   493.7 [  25;Ag ]   495.9 [  26;Bg ]   498.8 [  27;Bu ]
   504.4 [  28;Bu ]   519.8 [  29;Bg ]   527.9 [  30;Ag ]   531.2 [  31;Au ]
   537.6 [  32;Bg ]   602.3 [  33;Ag ]   625.2 [  34;Bg ]   654.5 [  35;Au ]
   659.5 [  36;Bu ]

 *******************************************************************************

 HARMONIC VIBRATIONAL CONTRIBUTIONS TO THERMODYNAMIC FUNCTIONS AT GIVEN
 TEMPERATURE AND PRESSURE:

 (EL = ELECTRONIC ENERGY
  E0 = ZERO-POINT ENERGY
  ET = THERMAL CONTRIBUTION TO THE VIBRATIONAL ENERGY
  PV = PRESSURE * VOLUME
  TS = TEMPERATURE * ENTROPY)

                          AU/CELL             EV/CELL                 KJ/MOL
 EL            :   -7607.423251106864 -207008.510771943344   -19973286.93103447
 E0            :       0.020878818668       0.568141539707          54.81733069


 *******************************************************************************

 THERMODYNAMIC FUNCTIONS WITH VIBRATIONAL CONTRIBUTIONS

 AT (T =  298.15 K, P =   0.10132500E+00 MPA):

                          AU/CELL             EV/CELL                 KJ/MOL
 ET            :       0.015300968760       0.416360527325          40.17268782
 PV            :       0.000004592744       0.000124974915           0.01205825
 TS            :       0.026699265843       0.726523959345          70.09891259
 ET+PV-TS      :      -0.011393704339      -0.310038457106         -29.91416653
 EL+E0+ET+PV-TS:   -7607.413765992535 -207008.252668860747   -19973262.02787031

 OTHER THERMODYNAMIC FUNCTIONS:

                      mHARTREE/(CELL*K)     mEV/(CELL*K)              J/(MOL*K)
 ENTROPY       :       0.089549776430       2.436773299833         235.11290488
 HEAT CAPACITY :       0.089111453640       2.424845930338         233.96208856

 *******************************************************************************
 TTTTTTTTTTTTTTTTTTTTTTTTTTTTTT END         TELAPSE    34157.87 TCPU    31846.09
 EEEEEEEEEE TERMINATION  DATE 30 05 2023 TIME 09:26:54.5
