         256 PROCESSORS WORKING

         
 *******************************************************************************
 *                                                                             *
 *                               CRYSTAL23                                     *
 *                      public : 1.0.1 - October 2022                          *
 *                       HTTP://WWW.CRYSTAL.UNITO.IT                           *
 *                                                                             *
 *                              MAIN AUTHORS                                   *
 *                                                                             *
 *  R. DOVESI(1,11), V.R. SAUNDERS(2), C. ROETTI(1,11), R. ORLANDO(1,11),      *
 *  C.M. ZICOVICH-WILSON(1,3), F. PASCALE(4), B. CIVALLERI(1,11),              *
 *  K. DOLL(5), N.M. HARRISON(6), I.J. BUSH(7), Ph. D'ARCO(8),                 *
 *  M. LLUNELL(9), M. CAUSA'(10), Y. NOEL(8), L. MASCHIO(1,11), A. ERBA(1,11)  *
 *  M. RE'RAT(14), S. CASASSA(1,11), B.G. SEARLE(2), J.K. DESMARAIS(1)         *
 *                                                                             *
 *        CONTRIBUTIONS TO THE CODE HAVE ALSO BEEN GIVEN BY                    *
 *                                                                             *
 *  M. FERRABONE(1,11), M. DE LA PIERRE(1,11), M. FERRERO(1,11),               *
 *  J. BAIMA(1,11), E. ALBANESE(1,11), M.F. PEINTINGER(12), R. BAST(13),       *
 *  B. KIRTMAN(15), V. LACIVITA(1,11), R. DEMICHELIS(1,16)                     *
 *  G. BRANDEBURG(17), S. SALUSTRO(1,11), G. SANSONE(1,11)                     *
 *  M.T. RUGGIERO(18), L.E. DAGA(1), L. DONA'(1), A. COSSARD(1)                *
 *                                                                             *
 * (1) THEORETICAL CHEMISTRY GROUP - UNIVERSITA' DI TORINO - TORINO (ITALY)    *
 * (2) SCIENTIFIC COMPUTING DEPARTMENT - STFC DARESBURY (UK)                   *
 * (3) UNIVERSIDAD AUTONOMA DEL ESTADO DE MORELOS - CUERNAVACA (MEXICO)        *
 * (4) UNIVERSITE' DE LORRAINE - NANCY (FRANCE)                                *
 * (5) UNIVERSITAET STUTTGART- STUTTGART (GERMANY)                             *
 * (6) IMPERIAL COLLEGE - LONDON (UK)                                          *
 * (7) SCIENTIFIC COMPUTING DEPARTMENT - STFC RAL (UK)                         *
 * (8) UPMC - SORBONNE UNIVERSITES - PARIS (FRANCE)                            *
 * (9) UNIVERSIDAD DE BARCELONA - BARCELONA (SPAIN)                            *
 *(10) UNIVERSITA' DI NAPOLI "FEDERICO II" - NAPOLI (ITALY)                    *
 *(11) NIS - NANOSTRUCTURED INTERFACES AND SURFACES - TORINO (ITALY)           *
 *(12) MPI FUER CHEMISCHE ENERGIEKONVERSION - MUELHEIM AN DER RUHR (GERMANY)   *
 *(13) UNIVERSITY OF TROMSO - TROMSO (NORWAY)                                  *
 *(14) UNIVERSITE' DE PAU ET DES PAYS DE L'ADOUR - PAU (FRANCE)                *
 *(15) UNIVERSITY OF CALIFORNIA SANTA BARBARA - SANTA BARBARA (USA)            *
 *(16) CURTIN UNIVERSITY - PERTH (AUSTRALIA)                                   *
 *(17) UNIVERSITY COLLEGE LONDON - LONDON (UK)                                 *
 *(18) UNIVERSITY OF VERMONT - BURLINGTON (USA)                                *
 *                                                                             *
 *******************************************************************************
 EEEEEEEEEE STARTING  DATE 05 09 2023 TIME 16:51:19.1
 ICSD_CollCode2459.cif                                                           

 CRYSTAL CALCULATION
 (INPUT ACCORDING TO THE INTERNATIONAL TABLES FOR X-RAY CRYSTALLOGRAPHY)
 CRYSTAL FAMILY                       :  ORTHORHOMBIC
 CRYSTAL CLASS  (GROTH - 1921)        :  ORTHORHOMBIC PYRAMIDAL               

 SPACE GROUP (NONCENTROSYMMETRIC)     :  P N A 21        

 LATTICE PARAMETERS  (ANGSTROMS AND DEGREES) - CONVENTIONAL CELL
        A           B           C        ALPHA        BETA       GAMMA
     6.44300     7.69300     6.12500    90.00000    90.00000    90.00000


 NUMBER OF IRREDUCIBLE ATOMS IN THE CONVENTIONAL CELL:    3

 INPUT COORDINATES

 ATOM AT. N.              COORDINATES
   1  30     5.818000000000E-01  3.749000000000E-01  3.750000000000E-01
   2  17     5.702000000000E-01  3.777000000000E-01  4.100000000000E-03
   3  17     5.841000000000E-01  8.668000000000E-01  9.938000000000E-01

 *******************************************************************************

 << INFORMATION >>: FROM NOW ON, ALL COORDINATES REFER TO THE PRIMITIVE CELL

 *******************************************************************************

 LATTICE PARAMETERS  (ANGSTROMS AND DEGREES) - PRIMITIVE CELL
       A          B          C        ALPHA      BETA     GAMMA        VOLUME
    6.44300    7.69300    6.12500    90.00000  90.00000  90.00000    303.591744

 COORDINATES OF THE EQUIVALENT ATOMS (FRACTIONAL UNITS)

 N. ATOM EQUIV AT. N.          X                  Y                  Z

   1   1   1   30 ZN   -4.18200000000E-01  3.74900000000E-01  3.75000000000E-01
   2   1   2   30 ZN    4.18200000000E-01 -3.74900000000E-01 -1.25000000000E-01
   3   1   3   30 ZN   -8.18000000000E-02 -1.25100000000E-01 -1.25000000000E-01
   4   1   4   30 ZN    8.18000000000E-02  1.25100000000E-01  3.75000000000E-01

   5   2   1   17 CL   -4.29800000000E-01  3.77700000000E-01  4.10000000000E-03
   6   2   2   17 CL    4.29800000000E-01 -3.77700000000E-01 -4.95900000000E-01
   7   2   3   17 CL   -7.02000000000E-02 -1.22300000000E-01 -4.95900000000E-01
   8   2   4   17 CL    7.02000000000E-02  1.22300000000E-01  4.10000000000E-03

   9   3   1   17 CL   -4.15900000000E-01 -1.33200000000E-01 -6.20000000000E-03
  10   3   2   17 CL    4.15900000000E-01  1.33200000000E-01  4.93800000000E-01
  11   3   3   17 CL   -8.41000000000E-02  3.66800000000E-01  4.93800000000E-01
  12   3   4   17 CL    8.41000000000E-02 -3.66800000000E-01 -6.20000000000E-03

 NUMBER OF SYMMETRY OPERATORS         :    4
 *******************************************************************************
 * GEOMETRY EDITING - INPUT COORDINATES ARE GIVEN IN ANGSTROM         
 *******************************************************************************

 GEOMETRY NOW FULLY CONSISTENT WITH THE GROUP

 FRQFRQFRQFRQFRQFRQFRQFRQFRQFRQFRQFRQFRQFRQFRQFRQFRQFRQFRQFRQFRQFRQFRQFRQFRQFRQ

                       FREQUENCY CALCULATION

 OPTIMIZATION PERFORMED BEFORE FREQUENCIES CALCULATION
 *******************************************************************************
 INFORMATION **** NEW DEFAULT **** FINALRUN 4 FOR GEOMETRY OPTIMIZATIONS
 INFORMATION **** NEW DEFAULT **** OPTGEOM OPTIMIZES ATOMIC COORDINATES ONLY
 INFORMATION **** NEW DEFAULT **** TOL. ON ATOMIC DISP TO REDEFINE REF. GEOMETRY: 0.8 Angs
 INFORMATION **** NEW DEFAULT **** N POINTS TO REDEFINE REF. GEOMETRY: N OF OPT DEGS OF FREEDOM
 INFORMATION **** NEW DEFAULT **** TOL. ON ENERGY TO REDEFINE REF. GEOMETRY: 10**-3*(5*N. ATOMS)
 INFORMATION **** FULLOPTG **** FULL OPTIMIZATION (ATOMS AND CELL PARAMETERS)

 IMPORTANT INFORMATION:
 THE COORDINATE SYSTEM ADOPTED IN THE OPTIMIZATION IS NOT IN
 GENERAL HOMOGENEOUS UNITS. FOR THIS REASON THE GRADIENT AND 
 HESSIAN MATRIX IN TERMS OF THIS SYSTEM ARE GIVEN WITHOUT
 UNITS. FOR MORE DETAILS SEE THE MANUAL.

 *******************************************************************************
 COMBINED CELL/ATOM OPTIMIZATION CONTROL

 INITIAL TRUST RADIUS         0.50000 MAXIMUM TRUST RADIUS               0.50000
 MAXIMUM GRADIENT COMPONENT   0.00005 MAXIMUM DISPLACEMENT COMPONENT     0.00018
 R.M.S. OF GRADIENT COMPONENT 0.00003 R.M.S. OF DISPLACEMENT COMPONENTS  0.00012
 THRESHOLD ON ENERGY CHANGE 0.100E-06 EXTRAPOLATING POLYNOMIAL ORDER           2
 MAXIMUM ALLOWED NUMBER OF STEPS   -1 SORTING OF ENERGY POINTS:               NO
 ANALYTICAL  GRADIENT                 HESSIAN UPDATING                      BFGS
 STEP SIZE NUMERICAL GRADIENT 0.00100
 INITIAL HESSIAN MATRIX: SCHLEGEL MODEL 2
 *******************************************************************************

 INFORMATION **** INPFREQ **** IR INTENSITIES EVALUATED THROUGH CPHF APPROACH
 INFORMATION **** INPFREQ **** NEW DEFAULT - IMPOSING ECKART CONDITIONS TO THE HESSIAN

 GCALCO - MAX INDICES DIRECT LATTICE VECTOR    15    13    16
 NO.OF VECTORS CREATED 6999 STARS 1051 RMAX   150.57650 BOHR

 GEOMETRY FOR WAVE FUNCTION - DIMENSIONALITY OF THE SYSTEM    3
 (NON PERIODIC DIRECTION: LATTICE PARAMETER FORMALLY SET TO 500)
 *******************************************************************************
 LATTICE PARAMETERS (ANGSTROMS AND DEGREES) - BOHR = 0.5291772083 ANGSTROM
 PRIMITIVE CELL - CENTRING CODE 1/0 VOLUME=   303.591744 - DENSITY  2.929 g/cm^3
         A              B              C           ALPHA      BETA       GAMMA 
     6.44300000     7.69300000     6.12500000    90.000000  90.000000  90.000000
 *******************************************************************************
 ATOMS IN THE ASYMMETRIC UNIT    3 - ATOMS IN THE UNIT CELL:   12
     ATOM                 X/A                 Y/B                 Z/C    
 *******************************************************************************
      1 T  30 ZN   -4.182000000000E-01  3.749000000000E-01  3.750000000000E-01
      2 F  30 ZN    4.182000000000E-01 -3.749000000000E-01 -1.250000000000E-01
      3 F  30 ZN   -8.180000000000E-02 -1.251000000000E-01 -1.250000000000E-01
      4 F  30 ZN    8.180000000000E-02  1.251000000000E-01  3.750000000000E-01
      5 T  17 CL   -4.298000000000E-01  3.777000000000E-01  4.100000000000E-03
      6 F  17 CL    4.298000000000E-01 -3.777000000000E-01 -4.959000000000E-01
      7 F  17 CL   -7.020000000000E-02 -1.223000000000E-01 -4.959000000000E-01
      8 F  17 CL    7.020000000000E-02  1.223000000000E-01  4.100000000000E-03
      9 T  17 CL   -4.159000000000E-01 -1.332000000000E-01 -6.200000000000E-03
     10 F  17 CL    4.159000000000E-01  1.332000000000E-01  4.938000000000E-01
     11 F  17 CL   -8.410000000000E-02  3.668000000000E-01  4.938000000000E-01
     12 F  17 CL    8.410000000000E-02 -3.668000000000E-01 -6.200000000000E-03

 T = ATOM BELONGING TO THE ASYMMETRIC UNIT

 ****    4 SYMMOPS - TRANSLATORS IN FRACTIONAL UNITS
 **** MATRICES AND TRANSLATORS IN THE CRYSTALLOGRAPHIC REFERENCE FRAME
   V INV                    ROTATION MATRICES                   TRANSLATORS
   1   1  1.00  0.00  0.00  0.00  1.00  0.00  0.00  0.00  1.00  0.00  0.00  0.00
   2   2 -1.00  0.00  0.00  0.00 -1.00  0.00  0.00  0.00  1.00  0.00  0.00  0.50
   3   3 -1.00  0.00  0.00  0.00  1.00  0.00  0.00  0.00  1.00  0.50  0.50  0.50
   4   4  1.00  0.00  0.00  0.00 -1.00  0.00  0.00  0.00  1.00  0.50  0.50  0.00

 DIRECT LATTICE VECTORS CARTESIAN COMPONENTS (ANGSTROM)
          X                    Y                    Z
   0.644300000000E+01   0.000000000000E+00   0.000000000000E+00
   0.000000000000E+00   0.769300000000E+01   0.000000000000E+00
   0.000000000000E+00   0.000000000000E+00   0.612500000000E+01


 CARTESIAN COORDINATES - PRIMITIVE CELL
 *******************************************************************************
 *      ATOM          X(ANGSTROM)         Y(ANGSTROM)         Z(ANGSTROM)
 *******************************************************************************
    1    30 ZN   -2.694462600000E+00  2.884105700000E+00  2.296875000000E+00
    2    30 ZN    2.694462600000E+00 -2.884105700000E+00 -7.656250000000E-01
    3    30 ZN   -5.270374000000E-01 -9.623943000000E-01 -7.656250000000E-01
    4    30 ZN    5.270374000000E-01  9.623943000000E-01  2.296875000000E+00
    5    17 CL   -2.769201400000E+00  2.905646100000E+00  2.511250000000E-02
    6    17 CL    2.769201400000E+00 -2.905646100000E+00 -3.037387500000E+00
    7    17 CL   -4.522986000000E-01 -9.408539000000E-01 -3.037387500000E+00
    8    17 CL    4.522986000000E-01  9.408539000000E-01  2.511250000000E-02
    9    17 CL   -2.679643700000E+00 -1.024707600000E+00 -3.797500000000E-02
   10    17 CL    2.679643700000E+00  1.024707600000E+00  3.024525000000E+00
   11    17 CL   -5.418563000000E-01  2.821792400000E+00  3.024525000000E+00
   12    17 CL    5.418563000000E-01 -2.821792400000E+00 -3.797500000000E-02

 *******************************************************************************
 LOCAL ATOMIC FUNCTIONS BASIS SET
 *******************************************************************************
   ATOM   X(AU)   Y(AU)   Z(AU)  N. TYPE  EXPONENT  S COEF   P COEF   D/F/G COEF
 *******************************************************************************
   1 ZN  -5.092   5.450   4.340
                                  1 S  
                                         4.059E+05 2.244E-04 0.000E+00 0.000E+00
                                         6.085E+04 1.740E-03 0.000E+00 0.000E+00
                                         1.385E+04 9.051E-03 0.000E+00 0.000E+00
                                         3.920E+03 3.682E-02 0.000E+00 0.000E+00
                                         1.276E+03 1.200E-01 0.000E+00 0.000E+00
                                         4.587E+02 2.858E-01 0.000E+00 0.000E+00
                                         1.783E+02 4.109E-01 0.000E+00 0.000E+00
                                         7.061E+01 2.182E-01 0.000E+00 0.000E+00
                                  2 S  
                                         4.439E+02-2.493E-02 0.000E+00 0.000E+00
                                         1.376E+02-1.182E-01 0.000E+00 0.000E+00
                                         2.227E+01 5.537E-01 0.000E+00 0.000E+00
                                         9.522E+00 5.263E-01 0.000E+00 0.000E+00
                                  3 S  
                                         1.487E+01-2.293E-01 0.000E+00 0.000E+00
                                         2.465E+00 7.114E-01 0.000E+00 0.000E+00
                                  4 S  
                                         1.011E+00 1.000E+00 0.000E+00 0.000E+00
                                  5 S  
                                         3.230E-01 1.000E+00 0.000E+00 0.000E+00
                                  6 S  
                                         1.517E-01 1.000E+00 0.000E+00 0.000E+00
                           7-     9 P  
                                         2.205E+03 0.000E+00 2.336E-03 0.000E+00
                                         5.224E+02 0.000E+00 1.903E-02 0.000E+00
                                         1.677E+02 0.000E+00 8.996E-02 0.000E+00
                                         6.267E+01 0.000E+00 2.611E-01 0.000E+00
                                         2.511E+01 0.000E+00 4.235E-01 0.000E+00
                                         1.023E+01 0.000E+00 2.462E-01 0.000E+00
                          10-    12 P  
                                         4.071E+01 0.000E+00-3.003E-02 0.000E+00
                                         5.625E+00 0.000E+00 5.558E-01 0.000E+00
                                         2.228E+00 0.000E+00 9.558E-01 0.000E+00
                          13-    15 P  
                                         1.160E+00 0.000E+00 1.000E+00 0.000E+00
                          16-    18 P  
                                         2.625E-01 0.000E+00 1.000E+00 0.000E+00
                          19-    23 D  
                                         8.855E+01 0.000E+00 0.000E+00 1.273E-02
                                         2.572E+01 0.000E+00 0.000E+00 7.939E-02
                                         9.128E+00 0.000E+00 0.000E+00 2.449E-01
                                         3.431E+00 0.000E+00 0.000E+00 4.039E-01
                          24-    28 D  
                                         1.186E+00 0.000E+00 0.000E+00 1.000E+00
                          29-    33 D  
                                         3.309E-01 0.000E+00 0.000E+00 1.000E+00
                          34-    40 F  
                                         2.614E+00 0.000E+00 0.000E+00 1.000E+00
   2 ZN   5.092  -5.450  -1.447
   3 ZN  -0.996  -1.819  -1.447
   4 ZN   0.996   1.819   4.340
   5 CL  -5.233   5.491   0.047
                                161 S  
                                         6.951E+04 5.431E-04 0.000E+00 0.000E+00
                                         1.043E+04 4.199E-03 0.000E+00 0.000E+00
                                         2.373E+03 2.159E-02 0.000E+00 0.000E+00
                                         6.716E+02 8.460E-02 0.000E+00 0.000E+00
                                         2.184E+02 2.476E-01 0.000E+00 0.000E+00
                                         7.757E+01 4.702E-01 0.000E+00 0.000E+00
                                         2.889E+01 3.744E-01 0.000E+00 0.000E+00
                                162 S  
                                         1.271E+02 2.518E-02 0.000E+00 0.000E+00
                                         3.934E+01 1.079E-01 0.000E+00 0.000E+00
                                         7.674E+00-2.741E-01 0.000E+00 0.000E+00
                                163 S  
                                         3.875E+00 1.321E+00 0.000E+00 0.000E+00
                                         1.839E+00 6.864E-01 0.000E+00 0.000E+00
                                164 S  
                                         4.499E-01 1.000E+00 0.000E+00 0.000E+00
                                165 S  
                                         1.364E-01 1.000E+00 0.000E+00 0.000E+00
                         166-   168 P  
                                         6.665E+02 0.000E+00 2.363E-03 0.000E+00
                                         1.576E+02 0.000E+00 1.888E-02 0.000E+00
                                         5.026E+01 0.000E+00 8.721E-02 0.000E+00
                                         1.854E+01 0.000E+00 2.529E-01 0.000E+00
                                         7.294E+00 0.000E+00 4.351E-01 0.000E+00
                         169-   171 P  
                                         2.801E+00 0.000E+00 1.000E+00 0.000E+00
                         172-   174 P  
                                         7.896E-01 0.000E+00 1.000E+00 0.000E+00
                         175-   177 P  
                                         2.106E-01 0.000E+00 1.000E+00 0.000E+00
                         178-   182 D  
                                         2.373E-01 0.000E+00 0.000E+00 1.000E+00
   6 CL   5.233  -5.491  -5.740
   7 CL  -0.855  -1.778  -5.740
   8 CL   0.855   1.778   0.047
   9 CL  -5.064  -1.936  -0.072
  10 CL   5.064   1.936   5.716
  11 CL  -1.024   5.332   5.716
  12 CL   1.024  -5.332  -0.072
 INFORMATION **** SET_MPP **** PCRYSTAL CALCULATION
 INFORMATION **** READM2 **** NEW DEFAULT: FOCK/KS MATRIX MIXING SET TO 30 %
 INFORMATION **** READM2 **** NEW DEFAULT: FULL DIRECT SCF MODE
 INFORMATION **** READM2 **** NEW DEFAULT: COULOMB BIPOLAR BUFFER SET TO 32 Mb
 INFORMATION **** READM2 **** NEW DEFAULT: EXCHANGE BIPOLAR BUFFER SET TO 32 Mb

 *******************************************************************************
 NEW DEFAULT: DFT INTEGRATION GRID INCREASED TO XLGRID
 NEW DEFAULT: DIIS ACCELERATOR ACTIVE
 USE KEYWORD NODIIS TO TURN IT OFF
 *******************************************************************************

 INFORMATION **** RDDFTP **** MAX N. OF POINTS ALLOWED IN A BATCH FOR NUMERICAL INTEGRATION         200
 INFORMATION **** TOLINTEG **** COULOMB AND EXCHANGE SERIES TOLERANCES MODIFIED
 INFORMATION **** TOLDEE **** SCF TOL ON TOTAL ENERGY SET TO          11
 INFORMATION **** EXCHSIZE **** EXCHANGE BIPOLAR BUFFER SIZE SET TO    12012489
 INFORMATION **** MAXCYCLE **** MAX NUMBER OF SCF CYCLES SET TO         150
 *******************************************************************************
 N. OF ATOMS PER CELL        12  COULOMB OVERLAP TOL         (T1) 10**   -7
 NUMBER OF SHELLS           136  COULOMB PENETRATION TOL     (T2) 10**   -7
 NUMBER OF AO               336  EXCHANGE OVERLAP TOL        (T3) 10**   -7
 N. OF ELECTRONS PER CELL   256  EXCHANGE PSEUDO OVP (F(G))  (T4) 10**   -9
 CORE ELECTRONS PER CELL    152  EXCHANGE PSEUDO OVP (P(G))  (T5) 10**  -30
 N. OF SYMMETRY OPERATORS     4  POLE ORDER IN MONO ZONE                  4
 *******************************************************************************
 TYPE OF CALCULATION :  RESTRICTED CLOSED SHELL
 KOHN-SHAM HAMILTONIAN

 (EXCHANGE)[CORRELATION] FUNCTIONAL:(PERDEW-BURKE-ERNZERHOF)[PERDEW-BURKE-ERNZERHOF]


 HYBRID EXCHANGE - PERCENTAGE OF FOCK EXCHANGE    25.0000

 CAPPA:IS1  8;IS2  8;IS3  8; K PTS MONK NET 125; SYMMOPS:K SPACE   8;G SPACE   4

 *******************************************************************************
 MAX NUMBER OF SCF CYCLES     150  CONVERGENCE ON DELTAP        10**-21
 WEIGHT OF F(I) IN F(I+1)      30% CONVERGENCE ON ENERGY        10**-11
 SHRINK. FACT.(MONKH.)    8  8  8  NUMBER OF K POINTS IN THE IBZ    125
 SHRINKING FACTOR(GILAT NET)    8  NUMBER OF K POINTS(GILAT NET)    125
 *******************************************************************************
 *** K POINTS COORDINATES (OBLIQUE COORDINATES IN UNITS OF IS =  8)
   1-R(  0  0  0)   2-C(  1  0  0)   3-C(  2  0  0)   4-C(  3  0  0)
   5-R(  4  0  0)   6-C(  0  1  0)   7-C(  1  1  0)   8-C(  2  1  0)
   9-C(  3  1  0)  10-C(  4  1  0)  11-C(  0  2  0)  12-C(  1  2  0)
  13-C(  2  2  0)  14-C(  3  2  0)  15-C(  4  2  0)  16-C(  0  3  0)
  17-C(  1  3  0)  18-C(  2  3  0)  19-C(  3  3  0)  20-C(  4  3  0)
  21-R(  0  4  0)  22-C(  1  4  0)  23-C(  2  4  0)  24-C(  3  4  0)
  25-R(  4  4  0)  26-C(  0  0  1)  27-C(  1  0  1)  28-C(  2  0  1)
  29-C(  3  0  1)  30-C(  4  0  1)  31-C(  0  1  1)  32-C(  1  1  1)
  33-C(  2  1  1)  34-C(  3  1  1)  35-C(  4  1  1)  36-C(  0  2  1)
  37-C(  1  2  1)  38-C(  2  2  1)  39-C(  3  2  1)  40-C(  4  2  1)
  41-C(  0  3  1)  42-C(  1  3  1)  43-C(  2  3  1)  44-C(  3  3  1)
  45-C(  4  3  1)  46-C(  0  4  1)  47-C(  1  4  1)  48-C(  2  4  1)
  49-C(  3  4  1)  50-C(  4  4  1)  51-C(  0  0  2)  52-C(  1  0  2)
  53-C(  2  0  2)  54-C(  3  0  2)  55-C(  4  0  2)  56-C(  0  1  2)
  57-C(  1  1  2)  58-C(  2  1  2)  59-C(  3  1  2)  60-C(  4  1  2)
  61-C(  0  2  2)  62-C(  1  2  2)  63-C(  2  2  2)  64-C(  3  2  2)
  65-C(  4  2  2)  66-C(  0  3  2)  67-C(  1  3  2)  68-C(  2  3  2)
  69-C(  3  3  2)  70-C(  4  3  2)  71-C(  0  4  2)  72-C(  1  4  2)
  73-C(  2  4  2)  74-C(  3  4  2)  75-C(  4  4  2)  76-C(  0  0  3)
  77-C(  1  0  3)  78-C(  2  0  3)  79-C(  3  0  3)  80-C(  4  0  3)
  81-C(  0  1  3)  82-C(  1  1  3)  83-C(  2  1  3)  84-C(  3  1  3)
  85-C(  4  1  3)  86-C(  0  2  3)  87-C(  1  2  3)  88-C(  2  2  3)
  89-C(  3  2  3)  90-C(  4  2  3)  91-C(  0  3  3)  92-C(  1  3  3)
  93-C(  2  3  3)  94-C(  3  3  3)  95-C(  4  3  3)  96-C(  0  4  3)
  97-C(  1  4  3)  98-C(  2  4  3)  99-C(  3  4  3) 100-C(  4  4  3)
 101-R(  0  0  4) 102-C(  1  0  4) 103-C(  2  0  4) 104-C(  3  0  4)
 105-R(  4  0  4) 106-C(  0  1  4) 107-C(  1  1  4) 108-C(  2  1  4)
 109-C(  3  1  4) 110-C(  4  1  4) 111-C(  0  2  4) 112-C(  1  2  4)
 113-C(  2  2  4) 114-C(  3  2  4) 115-C(  4  2  4) 116-C(  0  3  4)
 117-C(  1  3  4) 118-C(  2  3  4) 119-C(  3  3  4) 120-C(  4  3  4)
 121-R(  0  4  4) 122-C(  1  4  4) 123-C(  2  4  4) 124-C(  3  4  4)
 125-R(  4  4  4)

 DIRECT LATTICE VECTORS COMPON. (A.U.)     RECIP. LATTICE VECTORS COMPON. (A.U.) 
        X            Y            Z              X            Y            Z
   12.1755055    0.0000000    0.0000000      0.5160513    0.0000000    0.0000000
    0.0000000   14.5376631    0.0000000      0.0000000    0.4322005    0.0000000
    0.0000000    0.0000000   11.5745726      0.0000000    0.0000000    0.5428438

 DISK SPACE FOR EIGENVECTORS (FTN 10)    27320832 REALS

 SYMMETRY ADAPTION OF THE BLOCH FUNCTIONS ENABLED
 TTTTTTTTTTTTTTTTTTTTTTTTTTTTTT gordsh1     TELAPSE        4.40 TCPU        2.30

 MATRIX SIZE: P(G) 1085616, F(G)   85948, P(G) IRR  142219, F(G) IRR   22617
 MAX G-VECTOR INDEX FOR 1- AND 2-ELECTRON INTEGRALS 221

 TTTTTTTTTTTTTTTTTTTTTTTTTTTTTT INPUT       TELAPSE        4.40 TCPU        2.30

 NEIGHBORS OF THE NON-EQUIVALENT ATOMS

 N = NUMBER OF NEIGHBORS AT DISTANCE R
    ATOM  N     R/ANG      R/AU   NEIGHBORS (ATOM LABELS AND CELL INDICES)
   1 ZN   1     2.2648     4.2799   10 CL  -1 0 0
   1 ZN   1     2.2731     4.2955    5 CL   0 0 0
   1 ZN   1     2.2731     4.2956   11 CL   0 0 0
   1 ZN   1     2.2818     4.3120    6 CL  -1 1 1
   1 ZN   2     3.7511     7.0886    4 ZN   0 0 0    4 ZN  -1 0 0
   1 ZN   2     3.7676     7.1197    2 ZN  -1 1 0    2 ZN  -1 1 1

   5 CL   1     2.2731     4.2955    1 ZN   0 0 0
   5 CL   1     2.2818     4.3120    2 ZN  -1 1 0
   5 CL   1     3.6773     6.9491   10 CL  -1 0 0
   5 CL   1     3.6982     6.9885   12 CL  -1 1 0
   5 CL   2     3.7065     7.0042    6 CL  -1 1 0    6 CL  -1 1 1
   5 CL   1     3.7369     7.0618   11 CL   0 0 0

   9 CL   1     2.2648     4.2799    2 ZN  -1 0 0
   9 CL   1     2.2731     4.2956    3 ZN   0 0 0
   9 CL   1     3.6773     6.9491    6 CL  -1 0 0
   9 CL   2     3.6888     6.9709   12 CL   0 0 0   12 CL  -1 0 0
   9 CL   1     3.6982     6.9885    8 CL   0 0 0
   9 CL   1     3.7369     7.0618    7 CL   0 0 0


 SYMMETRY ALLOWED ELASTIC DISTORTION 1
  0.5773503  0.0000000  0.0000000
  0.0000000  0.5773503  0.0000000
  0.0000000  0.0000000  0.5773503

 SYMMETRY ALLOWED ELASTIC DISTORTION 2
  0.8164966  0.0000000  0.0000000
  0.0000000 -0.4082483  0.0000000
  0.0000000  0.0000000 -0.4082483

 SYMMETRY ALLOWED ELASTIC DISTORTION 3
 -0.0000000  0.0000000  0.0000000
  0.0000000  0.7071068  0.0000000
  0.0000000  0.0000000 -0.7071068

 SYMMETRY ALLOWED INTERNAL DEGREE(S) OF FREEDOM:   8
 TTTTTTTTTTTTTTTTTTTTTTTTTTTTTT SYMM        TELAPSE        4.47 TCPU        2.36
 TTTTTTTTTTTTTTTTTTTTTTTTTTTTTT INT_SCREEN  TELAPSE        4.47 TCPU        2.37

 *******************************************************************************
 *                             OPTIMIZATION STARTS                             *
 *******************************************************************************
 RECLASIFICATION OF INDICES FOR INTEGRAL CALC ACCORDING TO DIFFERENT CRITERIA:
           FIXDELTE                  FIXDELTX              FIXDELTN
          0.10000000               0.80000000                 11
 *******************************************************************************

 *******************************************************************************
 COORDINATE AND CELL OPTIMIZATION - POINT    1

 DFT PARAMETERS

     ATOM       ELECTRONS   NET CHARGE   R(ANGSTROM)
   1  30  ZN     30.0000      0.0000     1.37000000
   5  17  CL     17.0000      0.0000     0.99000000

 SIZE OF GRID=     178210
 TTTTTTTTTTTTTTTTTTTTTTTTTTTTTT MAKE_GRID2  TELAPSE        6.68 TCPU        4.57
 BECKE WEIGHT FUNCTION
 RADSAFE =     2.00
 TOLERANCES - DENSITY:10**- 6; POTENTIAL:10**- 9; GRID WGT:10**-14

 RADIAL INTEGRATION  - INTERVALS (POINTS,UPPER LIMIT):            1( 99,  4.0*R)

 ANGULAR INTEGRATION - INTERVALS (ACCURACY LEVEL [N. POINTS] UPPER LIMIT):
  1(  6[ 146]   0.2)  2( 11[ 302]   0.5)  3( 14[ 590]   0.9)  4( 18[1454]   3.5)
  5( 14[ 590]9999.0)
 TTTTTTTTTTTTTTTTTTTTTTTTTTTTTT INT_CALC    TELAPSE        6.71 TCPU        4.59

 *******************************************************************************
 ICSD_CollCode2459.cif                                                           
 CRYSTAL - SCF - TYPE OF CALCULATION :  RESTRICTED CLOSED SHELL
 *******************************************************************************

 CAPPA:IS1  8;IS2  8;IS3  8; K PTS MONK NET 125; SYMMOPS:K SPACE   8;G SPACE   4

 TTTTTTTTTTTTTTTTTTTTTTTTTTTTTT SDIK        TELAPSE        6.75 TCPU        4.63

 AAAAAAAAAAAAAAAAAAAAAAAAAAAAAAAAAAAAAAAAAAAAAAAAAAAAAAAAAAAAAAAAAAAAAAAAAAAAAAA
         ATOMIC WAVEFUNCTION(S)


 NUCLEAR CHARGE 30.0  SYMMETRY SPECIES            S    P    D
 N. ELECTRONS   30.0  NUMBER OF PRIMITIVE GTOS   17   11    6
                      NUMBER OF CONTRACTED GTOS   6    4    3
                      NUMBER OF CLOSED SHELLS     4    2    1
                      OPEN SHELL OCCUPATION       0    0    0

  ZNUC  SCFIT    TOTAL HF ENERGY   KINETIC ENERGY   VIRIAL THEOREM             ACCURACY
  30.0    18    -1.777712574E+03  1.776653869E+03 -2.000595898E+00  2.8E-06

 NUCLEAR CHARGE 17.0  SYMMETRY SPECIES            S    P
 N. ELECTRONS   17.0  NUMBER OF PRIMITIVE GTOS   14    8
                      NUMBER OF CONTRACTED GTOS   5    4
                      NUMBER OF CLOSED SHELLS     3    1
                      OPEN SHELL OCCUPATION       0    5

  ZNUC  SCFIT    TOTAL HF ENERGY   KINETIC ENERGY   VIRIAL THEOREM             ACCURACY
  17.0    11    -4.594467889E+02  4.597829392E+02 -1.999268894E+00  2.2E-06

 AAAAAAAAAAAAAAAAAAAAAAAAAAAAAAAAAAAAAAAAAAAAAAAAAAAAAAAAAAAAAAAAAAAAAAAAAAAAAAA

 TTTTTTTTTTTTTTTTTTTTTTTTTTTTTT MOQGAD      TELAPSE        6.76 TCPU        4.64
 TTTTTTTTTTTTTTTTTTTTTTTTTTTTTT SHELLXN     TELAPSE        7.93 TCPU        5.80
 TTTTTTTTTTTTTTTTTTTTTTTTTTTTTT MONMO3      TELAPSE        7.94 TCPU        5.81
 NUMERICALLY INTEGRATED DENSITY    256.0000039031
 TTTTTTTTTTTTTTTTTTTTTTTTTTTTTT NUMDFT      TELAPSE        8.02 TCPU        5.89
 CYC   0 ETOT(AU) -1.079813920815E+04 DETOT -1.08E+04 tst  0.00E+00 PX  1.00E+00
 TTTTTTTTTTTTTTTTTTTTTTTTTTTTTT DIIS        TELAPSE        8.03 TCPU        5.90
 TTTTTTTTTTTTTTTTTTTTTTTTTTTTTT FDIK        TELAPSE        8.13 TCPU        6.00
 INSULATING STATE
 TOP OF VALENCE BANDS -    BAND    128; K    1; EIG -2.9455334E-01 AU
 BOTTOM OF VIRTUAL BANDS - BAND    129; K    1; EIG -5.4827858E-02 AU
 DIRECT ENERGY BAND GAP:   6.5233 eV
 TTTTTTTTTTTTTTTTTTTTTTTTTTTTTT PDIG        TELAPSE        8.19 TCPU        6.06
 TTTTTTTTTTTTTTTTTTTTTTTTTTTTTT MOQGAD      TELAPSE        8.19 TCPU        6.06
 TTTTTTTTTTTTTTTTTTTTTTTTTTTTTT SHELLXN     TELAPSE        9.40 TCPU        7.27
 TTTTTTTTTTTTTTTTTTTTTTTTTTTTTT MONMO3      TELAPSE        9.41 TCPU        7.27
 NUMERICALLY INTEGRATED DENSITY    256.0000051735
 TTTTTTTTTTTTTTTTTTTTTTTTTTTTTT NUMDFT      TELAPSE        9.59 TCPU        7.45
 CYC   1 ETOT(AU) -1.079717627983E+04 DETOT  9.63E-01 tst  0.00E+00 PX  1.00E+00
 TTTTTTTTTTTTTTTTTTTTTTTTTTTTTT DIIS        TELAPSE        9.60 TCPU        7.46
 DIIS TEST: 0.11875E+01 AT SCF   CYCLE   1 - MIX   30 %
 TTTTTTTTTTTTTTTTTTTTTTTTTTTTTT FDIK        TELAPSE        9.70 TCPU        7.56
 INSULATING STATE
 TOP OF VALENCE BANDS -    BAND    128; K    1; EIG -2.9033571E-01 AU
 BOTTOM OF VIRTUAL BANDS - BAND    129; K    1; EIG -5.3454777E-02 AU
 DIRECT ENERGY BAND GAP:   6.4459 eV
 TTTTTTTTTTTTTTTTTTTTTTTTTTTTTT PDIG        TELAPSE        9.76 TCPU        7.61
 TTTTTTTTTTTTTTTTTTTTTTTTTTTTTT MOQGAD      TELAPSE        9.76 TCPU        7.62
 TTTTTTTTTTTTTTTTTTTTTTTTTTTTTT SHELLXN     TELAPSE       10.96 TCPU        8.81
 TTTTTTTTTTTTTTTTTTTTTTTTTTTTTT MONMO3      TELAPSE       10.97 TCPU        8.82
 NUMERICALLY INTEGRATED DENSITY    256.0000053213
 TTTTTTTTTTTTTTTTTTTTTTTTTTTTTT NUMDFT      TELAPSE       11.15 TCPU        9.00
 CYC   2 ETOT(AU) -1.079726146129E+04 DETOT -8.52E-02 tst  3.40E-03 PX  1.03E-01
 TTTTTTTTTTTTTTTTTTTTTTTTTTTTTT DIIS        TELAPSE       11.16 TCPU        9.01
 DIIS TEST: 0.11907E+01 AT SCF   CYCLE   2 - DIIS ACTIVE - HISTORY:     2 CYCLES
 TTTTTTTTTTTTTTTTTTTTTTTTTTTTTT FDIK        TELAPSE       11.26 TCPU        9.11
 INSULATING STATE
 TOP OF VALENCE BANDS -    BAND    128; K    1; EIG -2.9485648E-01 AU
 BOTTOM OF VIRTUAL BANDS - BAND    129; K    1; EIG -4.0137725E-02 AU
 DIRECT ENERGY BAND GAP:   6.9313 eV
 TTTTTTTTTTTTTTTTTTTTTTTTTTTTTT PDIG        TELAPSE       11.32 TCPU        9.17
 TTTTTTTTTTTTTTTTTTTTTTTTTTTTTT MOQGAD      TELAPSE       11.32 TCPU        9.17
 TTTTTTTTTTTTTTTTTTTTTTTTTTTTTT SHELLXN     TELAPSE       12.53 TCPU       10.37
 TTTTTTTTTTTTTTTTTTTTTTTTTTTTTT MONMO3      TELAPSE       12.54 TCPU       10.38
 NUMERICALLY INTEGRATED DENSITY    256.0000052812
 TTTTTTTTTTTTTTTTTTTTTTTTTTTTTT NUMDFT      TELAPSE       12.77 TCPU       10.61
 CYC   3 ETOT(AU) -1.079741158583E+04 DETOT -1.50E-01 tst  3.07E-04 PX  4.06E-02
 TTTTTTTTTTTTTTTTTTTTTTTTTTTTTT DIIS        TELAPSE       12.78 TCPU       10.62
 DIIS TEST: 0.27075E-01 AT SCF   CYCLE   3 - DIIS ACTIVE - HISTORY:     3 CYCLES
 TTTTTTTTTTTTTTTTTTTTTTTTTTTTTT FDIK        TELAPSE       12.89 TCPU       10.72
 INSULATING STATE
 TOP OF VALENCE BANDS -    BAND    128; K    1; EIG -3.0456033E-01 AU
 BOTTOM OF VIRTUAL BANDS - BAND    129; K    1; EIG -3.9090566E-02 AU
 DIRECT ENERGY BAND GAP:   7.2238 eV
 TTTTTTTTTTTTTTTTTTTTTTTTTTTTTT PDIG        TELAPSE       12.94 TCPU       10.78
 TTTTTTTTTTTTTTTTTTTTTTTTTTTTTT MOQGAD      TELAPSE       12.94 TCPU       10.78
 TTTTTTTTTTTTTTTTTTTTTTTTTTTTTT SHELLXN     TELAPSE       14.15 TCPU       11.97
 TTTTTTTTTTTTTTTTTTTTTTTTTTTTTT MONMO3      TELAPSE       14.16 TCPU       11.98
 NUMERICALLY INTEGRATED DENSITY    256.0000052682
 TTTTTTTTTTTTTTTTTTTTTTTTTTTTTT NUMDFT      TELAPSE       14.38 TCPU       12.21
 CYC   4 ETOT(AU) -1.079742001877E+04 DETOT -8.43E-03 tst  1.34E-04 PX  2.17E-02
 TTTTTTTTTTTTTTTTTTTTTTTTTTTTTT DIIS        TELAPSE       14.39 TCPU       12.22
 DIIS TEST: 0.27543E-03 AT SCF   CYCLE   4 - DIIS ACTIVE - HISTORY:     4 CYCLES
 TTTTTTTTTTTTTTTTTTTTTTTTTTTTTT FDIK        TELAPSE       14.50 TCPU       12.32
 INSULATING STATE
 TOP OF VALENCE BANDS -    BAND    128; K    1; EIG -3.0287894E-01 AU
 BOTTOM OF VIRTUAL BANDS - BAND    129; K    1; EIG -3.7419718E-02 AU
 DIRECT ENERGY BAND GAP:   7.2235 eV
 TTTTTTTTTTTTTTTTTTTTTTTTTTTTTT PDIG        TELAPSE       14.56 TCPU       12.38
 TTTTTTTTTTTTTTTTTTTTTTTTTTTTTT MOQGAD      TELAPSE       14.56 TCPU       12.38
 TTTTTTTTTTTTTTTTTTTTTTTTTTTTTT SHELLXN     TELAPSE       15.77 TCPU       13.58
 TTTTTTTTTTTTTTTTTTTTTTTTTTTTTT MONMO3      TELAPSE       15.78 TCPU       13.59
 NUMERICALLY INTEGRATED DENSITY    256.0000052883
 TTTTTTTTTTTTTTTTTTTTTTTTTTTTTT NUMDFT      TELAPSE       16.02 TCPU       13.83
 CYC   5 ETOT(AU) -1.079742010244E+04 DETOT -8.37E-05 tst  3.57E-07 PX  3.99E-03
 TTTTTTTTTTTTTTTTTTTTTTTTTTTTTT DIIS        TELAPSE       16.03 TCPU       13.84
 DIIS TEST: 0.13298E-04 AT SCF   CYCLE   5 - DIIS ACTIVE - HISTORY:     5 CYCLES
 TTTTTTTTTTTTTTTTTTTTTTTTTTTTTT FDIK        TELAPSE       16.13 TCPU       13.94
 INSULATING STATE
 TOP OF VALENCE BANDS -    BAND    128; K    1; EIG -3.0310941E-01 AU
 BOTTOM OF VIRTUAL BANDS - BAND    129; K    1; EIG -3.7586074E-02 AU
 DIRECT ENERGY BAND GAP:   7.2253 eV
 TTTTTTTTTTTTTTTTTTTTTTTTTTTTTT PDIG        TELAPSE       16.19 TCPU       14.00
 TTTTTTTTTTTTTTTTTTTTTTTTTTTTTT MOQGAD      TELAPSE       16.19 TCPU       14.00
 TTTTTTTTTTTTTTTTTTTTTTTTTTTTTT SHELLXN     TELAPSE       17.40 TCPU       15.20
 TTTTTTTTTTTTTTTTTTTTTTTTTTTTTT MONMO3      TELAPSE       17.41 TCPU       15.21
 NUMERICALLY INTEGRATED DENSITY    256.0000052855
 TTTTTTTTTTTTTTTTTTTTTTTTTTTTTT NUMDFT      TELAPSE       17.50 TCPU       15.29
 CYC   6 ETOT(AU) -1.079742010616E+04 DETOT -3.72E-06 tst  1.71E-08 PX  5.95E-04
 TTTTTTTTTTTTTTTTTTTTTTTTTTTTTT DIIS        TELAPSE       17.50 TCPU       15.30
 DIIS TEST: 0.17635E-06 AT SCF   CYCLE   6 - DIIS ACTIVE - HISTORY:     6 CYCLES
 TTTTTTTTTTTTTTTTTTTTTTTTTTTTTT FDIK        TELAPSE       17.61 TCPU       15.40
 INSULATING STATE
 TOP OF VALENCE BANDS -    BAND    128; K    1; EIG -3.0308980E-01 AU
 BOTTOM OF VIRTUAL BANDS - BAND    129; K    1; EIG -3.7546634E-02 AU
 DIRECT ENERGY BAND GAP:   7.2258 eV
 TTTTTTTTTTTTTTTTTTTTTTTTTTTTTT PDIG        TELAPSE       17.67 TCPU       15.46
 TTTTTTTTTTTTTTTTTTTTTTTTTTTTTT MOQGAD      TELAPSE       17.67 TCPU       15.46
 TTTTTTTTTTTTTTTTTTTTTTTTTTTTTT SHELLXN     TELAPSE       18.87 TCPU       16.66
 TTTTTTTTTTTTTTTTTTTTTTTTTTTTTT MONMO3      TELAPSE       18.88 TCPU       16.67
 NUMERICALLY INTEGRATED DENSITY    256.0000052862
 TTTTTTTTTTTTTTTTTTTTTTTTTTTTTT NUMDFT      TELAPSE       18.96 TCPU       16.75
 CYC   7 ETOT(AU) -1.079742010624E+04 DETOT -8.01E-08 tst  9.40E-10 PX  1.34E-04
 TTTTTTTTTTTTTTTTTTTTTTTTTTTTTT DIIS        TELAPSE       18.97 TCPU       16.76
 DIIS TEST: 0.13889E-07 AT SCF   CYCLE   7 - DIIS ACTIVE - HISTORY:     7 CYCLES
 TTTTTTTTTTTTTTTTTTTTTTTTTTTTTT FDIK        TELAPSE       19.07 TCPU       16.85
 INSULATING STATE
 TOP OF VALENCE BANDS -    BAND    128; K    1; EIG -3.0309102E-01 AU
 BOTTOM OF VIRTUAL BANDS - BAND    129; K    1; EIG -3.7549090E-02 AU
 DIRECT ENERGY BAND GAP:   7.2258 eV
 TTTTTTTTTTTTTTTTTTTTTTTTTTTTTT PDIG        TELAPSE       19.13 TCPU       16.91
 TTTTTTTTTTTTTTTTTTTTTTTTTTTTTT MOQGAD      TELAPSE       19.13 TCPU       16.91
 TTTTTTTTTTTTTTTTTTTTTTTTTTTTTT SHELLXN     TELAPSE       20.33 TCPU       18.11
 TTTTTTTTTTTTTTTTTTTTTTTTTTTTTT MONMO3      TELAPSE       20.34 TCPU       18.12
 NUMERICALLY INTEGRATED DENSITY    256.0000052861
 TTTTTTTTTTTTTTTTTTTTTTTTTTTTTT NUMDFT      TELAPSE       20.56 TCPU       18.33
 CYC   8 ETOT(AU) -1.079742010623E+04 DETOT  1.05E-08 tst  4.63E-11 PX  3.10E-05
 TTTTTTTTTTTTTTTTTTTTTTTTTTTTTT DIIS        TELAPSE       20.57 TCPU       18.34
 DIIS TEST: 0.13749E-08 AT SCF   CYCLE   8 - DIIS ACTIVE - HISTORY:     8 CYCLES
 TTTTTTTTTTTTTTTTTTTTTTTTTTTTTT FDIK        TELAPSE       20.73 TCPU       18.50
 INSULATING STATE
 TOP OF VALENCE BANDS -    BAND    128; K    1; EIG -3.0309285E-01 AU
 BOTTOM OF VIRTUAL BANDS - BAND    129; K    1; EIG -3.7550056E-02 AU
 DIRECT ENERGY BAND GAP:   7.2258 eV
 TTTTTTTTTTTTTTTTTTTTTTTTTTTTTT PDIG        TELAPSE       20.79 TCPU       18.56
 TTTTTTTTTTTTTTTTTTTTTTTTTTTTTT MOQGAD      TELAPSE       20.79 TCPU       18.56
 TTTTTTTTTTTTTTTTTTTTTTTTTTTTTT SHELLXN     TELAPSE       22.00 TCPU       19.76
 TTTTTTTTTTTTTTTTTTTTTTTTTTTTTT MONMO3      TELAPSE       22.00 TCPU       19.77
 NUMERICALLY INTEGRATED DENSITY    256.0000052861
 TTTTTTTTTTTTTTTTTTTTTTTTTTTTTT NUMDFT      TELAPSE       22.21 TCPU       19.97
 CYC   9 ETOT(AU) -1.079742010624E+04 DETOT -1.22E-08 tst  3.18E-12 PX  8.81E-06
 TTTTTTTTTTTTTTTTTTTTTTTTTTTTTT DIIS        TELAPSE       22.21 TCPU       19.97
 DIIS TEST: 0.25758E-10 AT SCF   CYCLE   9 - DIIS ACTIVE - HISTORY:     9 CYCLES
 TTTTTTTTTTTTTTTTTTTTTTTTTTTTTT FDIK        TELAPSE       22.32 TCPU       20.07
 INSULATING STATE
 TOP OF VALENCE BANDS -    BAND    128; K    1; EIG -3.0309246E-01 AU
 BOTTOM OF VIRTUAL BANDS - BAND    129; K    1; EIG -3.7549760E-02 AU
 DIRECT ENERGY BAND GAP:   7.2258 eV
 TTTTTTTTTTTTTTTTTTTTTTTTTTTTTT PDIG        TELAPSE       22.38 TCPU       20.14
 TTTTTTTTTTTTTTTTTTTTTTTTTTTTTT MOQGAD      TELAPSE       22.38 TCPU       20.14
 TTTTTTTTTTTTTTTTTTTTTTTTTTTTTT SHELLXN     TELAPSE       23.59 TCPU       21.34
 TTTTTTTTTTTTTTTTTTTTTTTTTTTTTT MONMO3      TELAPSE       23.60 TCPU       21.35
 NUMERICALLY INTEGRATED DENSITY    256.0000052861
 TTTTTTTTTTTTTTTTTTTTTTTTTTTTTT NUMDFT      TELAPSE       23.69 TCPU       21.43
 CYC  10 ETOT(AU) -1.079742010624E+04 DETOT  1.24E-09 tst  5.03E-14 PX  1.27E-06
 TTTTTTTTTTTTTTTTTTTTTTTTTTTTTT DIIS        TELAPSE       23.69 TCPU       21.44
 DIIS TEST: 0.71710E-12 AT SCF   CYCLE  10 - DIIS ACTIVE - HISTORY:    10 CYCLES
 TTTTTTTTTTTTTTTTTTTTTTTTTTTTTT FDIK        TELAPSE       23.81 TCPU       21.55
 INSULATING STATE
 TOP OF VALENCE BANDS -    BAND    128; K    1; EIG -3.0309242E-01 AU
 BOTTOM OF VIRTUAL BANDS - BAND    129; K    1; EIG -3.7549712E-02 AU
 DIRECT ENERGY BAND GAP:   7.2258 eV
 TTTTTTTTTTTTTTTTTTTTTTTTTTTTTT PDIG        TELAPSE       23.86 TCPU       21.61
 TTTTTTTTTTTTTTTTTTTTTTTTTTTTTT MOQGAD      TELAPSE       23.86 TCPU       21.61
 TTTTTTTTTTTTTTTTTTTTTTTTTTTTTT SHELLXN     TELAPSE       25.07 TCPU       22.81
 TTTTTTTTTTTTTTTTTTTTTTTTTTTTTT MONMO3      TELAPSE       25.08 TCPU       22.82
 NUMERICALLY INTEGRATED DENSITY    256.0000052861
 TTTTTTTTTTTTTTTTTTTTTTTTTTTTTT NUMDFT      TELAPSE       25.17 TCPU       22.91
 CYC  11 ETOT(AU) -1.079742010624E+04 DETOT  1.84E-10 tst  1.61E-15 PX  1.02E-07
 TTTTTTTTTTTTTTTTTTTTTTTTTTTTTT DIIS        TELAPSE       25.19 TCPU       22.93
 DIIS TEST: 0.59231E-13 AT SCF   CYCLE  11 - DIIS ACTIVE - HISTORY:    11 CYCLES
 TTTTTTTTTTTTTTTTTTTTTTTTTTTTTT FDIK        TELAPSE       25.29 TCPU       23.03
 INSULATING STATE
 TOP OF VALENCE BANDS -    BAND    128; K    1; EIG -3.0309243E-01 AU
 BOTTOM OF VIRTUAL BANDS - BAND    129; K    1; EIG -3.7549724E-02 AU
 DIRECT ENERGY BAND GAP:   7.2258 eV
 TTTTTTTTTTTTTTTTTTTTTTTTTTTTTT PDIG        TELAPSE       25.35 TCPU       23.08
 TTTTTTTTTTTTTTTTTTTTTTTTTTTTTT MOQGAD      TELAPSE       25.35 TCPU       23.08
 TTTTTTTTTTTTTTTTTTTTTTTTTTTTTT SHELLXN     TELAPSE       26.56 TCPU       24.28
 TTTTTTTTTTTTTTTTTTTTTTTTTTTTTT MONMO3      TELAPSE       26.57 TCPU       24.29
 NUMERICALLY INTEGRATED DENSITY    256.0000052861
 TTTTTTTTTTTTTTTTTTTTTTTTTTTTTT NUMDFT      TELAPSE       26.65 TCPU       24.38
 CYC  12 ETOT(AU) -1.079742010624E+04 DETOT -2.18E-11 tst  4.22E-17 PX  2.83E-08
 TTTTTTTTTTTTTTTTTTTTTTTTTTTTTT DIIS        TELAPSE       26.66 TCPU       24.39
 DIIS TEST: 0.17230E-14 AT SCF   CYCLE  12 - DIIS ACTIVE - HISTORY:    12 CYCLES
 TTTTTTTTTTTTTTTTTTTTTTTTTTTTTT FDIK        TELAPSE       26.76 TCPU       24.49
 INSULATING STATE
 TOP OF VALENCE BANDS -    BAND    128; K    1; EIG -3.0309243E-01 AU
 BOTTOM OF VIRTUAL BANDS - BAND    129; K    1; EIG -3.7549725E-02 AU
 DIRECT ENERGY BAND GAP:   7.2258 eV
 TTTTTTTTTTTTTTTTTTTTTTTTTTTTTT PDIG        TELAPSE       26.82 TCPU       24.54
 TTTTTTTTTTTTTTTTTTTTTTTTTTTTTT MOQGAD      TELAPSE       26.82 TCPU       24.54
 TTTTTTTTTTTTTTTTTTTTTTTTTTTTTT SHELLXN     TELAPSE       28.03 TCPU       25.74
 TTTTTTTTTTTTTTTTTTTTTTTTTTTTTT MONMO3      TELAPSE       28.04 TCPU       25.75
 NUMERICALLY INTEGRATED DENSITY    256.0000052861
 TTTTTTTTTTTTTTTTTTTTTTTTTTTTTT NUMDFT      TELAPSE       28.12 TCPU       25.84
 CYC  13 ETOT(AU) -1.079742010624E+04 DETOT -3.64E-12 tst  1.66E-18 PX  2.54E-09
 TTTTTTTTTTTTTTTTTTTTTTTTTTTTTT DIIS        TELAPSE       28.13 TCPU       25.84
 DIIS TEST: 0.10627E-16 AT SCF   CYCLE  13 - DIIS ACTIVE - HISTORY:    13 CYCLES
 TTTTTTTTTTTTTTTTTTTTTTTTTTTTTT FDIK        TELAPSE       28.23 TCPU       25.94
 INSULATING STATE
 TOP OF VALENCE BANDS -    BAND    128; K    1; EIG -3.0309243E-01 AU
 BOTTOM OF VIRTUAL BANDS - BAND    129; K    1; EIG -3.7549725E-02 AU
 DIRECT ENERGY BAND GAP:   7.2258 eV
 TTTTTTTTTTTTTTTTTTTTTTTTTTTTTT PDIG        TELAPSE       28.29 TCPU       26.00
 TTTTTTTTTTTTTTTTTTTTTTTTTTTTTT MOQGAD      TELAPSE       28.29 TCPU       26.00
 TTTTTTTTTTTTTTTTTTTTTTTTTTTTTT SHELLXN     TELAPSE       29.50 TCPU       27.20
 ::: PSEUDO TOTAL   ENERGY                        -1.0413072896814E+04
 ::: VIRIAL COEFFICIENT                            1.0174140641668E+00
 TTTTTTTTTTTTTTTTTTTTTTTTTTTTTT MONMO3      TELAPSE       29.51 TCPU       27.21
 NUMERICALLY INTEGRATED DENSITY    256.0000052861
 EXCHANGE ENERGY: -0.373194963415E+03  CORRELATION ENERGY: -0.111522460097E+02
 TTTTTTTTTTTTTTTTTTTTTTTTTTTTTT NUMDFT      TELAPSE       29.70 TCPU       27.40
 CYC  14 ETOT(AU) -1.079742010624E+04 DETOT  7.28E-12 tst  3.09E-20 PX  2.54E-09

 == SCF ENDED - CONVERGENCE ON ENERGY      E(AU) -1.0797420106239E+04 CYCLES  14


 ENERGY EXPRESSION=HARTREE+FOCK EXCH*0.25000+(PBE        EXCH)*0.75000+PBE        CORR


 TOTAL ENERGY(DFT)(AU)( 14) -1.0797420106239E+04 DE 7.3E-12 tester 3.1E-20
 TTTTTTTTTTTTTTTTTTTTTTTTTTTTTT EDFT        TELAPSE       29.70 TCPU       27.41

 *******************************************************************************
 *                             FORCE CALCULATION                               *
 *******************************************************************************

 TTTTTTTTTTTTTTTTTTTTTTTTTTTTTT NUMDFG      TELAPSE       29.94 TCPU       27.64
 INFORMATION **** EXCPOG **** EXCH. BIPO BUFFER LENGTH (WORDS) =     4321512
 INFORMATION **** GENPOG **** BIPO BUFFER LENGTH (WORDS) =     1055200
 TTTTTTTTTTTTTTTTTTTTTTTTTTTTTT SHELXG      TELAPSE       35.93 TCPU       33.59

 CARTESIAN FORCES IN HARTREE/BOHR (ANALYTICAL)
   ATOM                     X                   Y                   Z
   1  30            -1.383794043357E-04  2.076823219886E-03  4.916896386675E-04
   2  30             1.383794043703E-04 -2.076823219909E-03  4.916896386589E-04
   3  30             1.383794043028E-04  2.076823219858E-03  4.916896386589E-04
   4  30            -1.383794043477E-04 -2.076823219863E-03  4.916896386298E-04
   5  17             7.856379673514E-04 -1.634098773692E-03 -4.427292886906E-03
   6  17            -7.856379673372E-04  1.634098773671E-03 -4.427292886918E-03
   7  17            -7.856379673692E-04 -1.634098773724E-03 -4.427292886904E-03
   8  17             7.856379673621E-04  1.634098773746E-03 -4.427292886888E-03
   9  17            -1.072049187474E-03  4.987526251700E-03  3.935603248287E-03
  10  17             1.072049187522E-03 -4.987526251675E-03  3.935603248289E-03
  11  17             1.072049187457E-03  4.987526251728E-03  3.935603248287E-03
  12  17            -1.072049187499E-03 -4.987526251735E-03  3.935603248296E-03

 RESULTANT FORCE     2.220446049250E-15 -1.076916333886E-14  1.589839371263E-13

 ATOMIC PART

 SYMMETRY ALLOWED FORCES (ANALYTICAL) (DIRECTION, FORCE)

    1 -2.7675881E-04    2  4.1536464E-03    3  1.2043887E-03    4  1.5712759E-03
    5 -3.2681975E-03    6 -1.1826921E-02    7 -2.1440984E-03    8  9.9750525E-03

 CELL PART

 GRADIENT WITH RESPECT TO THE CELL PARAMETER IN HARTREE/BOHR
ORDER: -D/DA1X, -D/DA1Y, -D/DA1Z
       -D/DA2X, -D/DA2Y, -D/DA2Z
       -D/DA3X, -D/DA3Y, -D/DA3Z
  0.428020302588E-02 -0.804014170303E-15  0.106027316344E-14
 -0.121970944567E-13  0.431580703890E-02  0.342244050825E-15
 -0.331872533668E-16 -0.488337342143E-15  0.582970578993E-02

STRESS TENSOR, IN HARTREE/BOHR^3:
ORDER: 11 12 13
       21 22 23
       31 32 33
 -0.254369365026E-04  0.865494723140E-16  0.187495007810E-18
  0.477819796714E-17 -0.306245740043E-04  0.275891508005E-17
 -0.630112659861E-17 -0.242853264002E-17 -0.329355587380E-04

PRESSURE FROM THE STRESS TENSOR,
IN HARTREE/BOHR^3:  0.29666E-04
PRESSURE IN GIGAPASCAL:  0.8728E+00
CONVERSION FACTOR: 1 HARTREE/BOHR^3= 29421 GIGAPASCAL
WHEN USING VALUES FOR BOHR RADIUS AND HARTREE
FROM IUPAC WEBSITE, APRIL 2009
ENTHALPY: -1.0797359328993E+04

 SYMMETRY ALLOWED FORCES (ANALYTICAL) (DIRECTION, FORCE)

    1  7.8934556E-03    2 -8.1224820E-04    3 -2.4610024E-04
 TTTTTTTTTTTTTTTTTTTTTTTTTTTTTT TOTGRA      TELAPSE       36.16 TCPU       33.82
 INFORMATION **** optc001 **** GEOMETRY OUTPUT FILE
 CLASSICAL MODEL (SCHLEGEL) USED AS INITIAL HESSIAN MATRIX
 REFERENCE GEOMETRY DEFINED

 MAX GRADIENT      0.011827  THRESHOLD              0.000045 CONVERGED NO
 RMS GRADIENT      0.005551  THRESHOLD              0.000030 CONVERGED NO

 GRADIENT NORM     0.018410  GRADIENT THRESHOLD     0.500000

 EIGENVALUES OF THE ESTIMATED HESSIAN
  0.5722E-02  0.8629E-02  0.1568E-01  0.3270E-01  0.4106E-01  0.7799E-01
  0.1208      0.1684      0.2878      0.3904      0.4257    

 INITIAL TRUST RADIUS    0.5000000000E+00

 PREDICTED ENERGY CHANGE    -0.127E-02

 INITIAL DISPLACEMENTS
  0.061942 -0.000592  0.001805  0.072689 -0.072889 -0.139517 -0.074238  0.140811
 -0.117774  0.106707 -0.060251
 TTTTTTTTTTTTTTTTTTTTTTTTTTTTTT OPTI        TELAPSE       36.89 TCPU       34.53

 OPTOPTOPTOPTOPTOPTOPTOPTOPTOPTOPTOPTOPTOPTOPTOPTOPTOPTOPTOPTOPTOPTOPTOPTOPTOPT

 - INFORMATION ON SCF MOVED TO SCFOUT.LOG
 GEOMETRY OPTIMIZATION INFORMATION STORED IN OPTINFO.DAT

 OPTOPTOPTOPTOPTOPTOPTOPTOPTOPTOPTOPTOPTOPTOPTOPTOPTOPTOPTOPTOPTOPTOPTOPTOPTOPT
 *******************************************************************************
 COORDINATE AND CELL OPTIMIZATION - POINT    2
 *******************************************************************************
 LATTICE PARAMETERS (ANGSTROMS AND DEGREES) - BOHR = 0.5291772083 ANGSTROM
 PRIMITIVE CELL - CENTRING CODE 1/0 VOLUME=   298.958632 - DENSITY  2.974 g/cm^3
         A              B              C           ALPHA      BETA       GAMMA 
     6.45312074     7.60402915     6.09252799    90.000000  90.000000  90.000000
 *******************************************************************************
 ATOMS IN THE ASYMMETRIC UNIT    3 - ATOMS IN THE UNIT CELL:   12
     ATOM                 X/A                 Y/B                 Z/C    
 *******************************************************************************
      1 T  30 ZN   -4.156563050367E-01  3.748796501381E-01  3.750636733803E-01
      2 F  30 ZN    4.156563050367E-01 -3.748796501381E-01 -1.249363266197E-01
      3 F  30 ZN   -8.434369496327E-02 -1.251203498619E-01 -1.249363266197E-01
      4 F  30 ZN    8.434369496327E-02  1.251203498619E-01  3.750636733803E-01
      5 T  17 CL   -4.268149666517E-01  3.751930807316E-01 -1.934885176658E-04
      6 F  17 CL    4.268149666517E-01 -3.751930807316E-01  4.998065114823E-01
      7 F  17 CL   -7.318503334834E-02 -1.248069192684E-01  4.998065114823E-01
      8 F  17 CL    7.318503334834E-02  1.248069192684E-01 -1.934885176658E-04
      9 T  17 CL   -4.189486666276E-01 -1.283570440895E-01 -1.970184862601E-03
     10 F  17 CL    4.189486666276E-01  1.283570440895E-01  4.980298151374E-01
     11 F  17 CL   -8.105133337241E-02  3.716429559105E-01  4.980298151374E-01
     12 F  17 CL    8.105133337241E-02 -3.716429559105E-01 -1.970184862601E-03

 T = ATOM BELONGING TO THE ASYMMETRIC UNIT

 TOTAL ENERGY(DFT)(AU)( 12) -1.0797421750612E+04     DE (AU)   -1.644E-03

 UPDATED TRUST RADIUS     0.500E+00

 SYMMETRY ALLOWED FORCES  (COORDINATE, FORCE)

    1  7.1216637E-04    2  5.5705503E-04    3  9.5475556E-04    4  6.5110201E-04
    5 -1.0882365E-03    6 -3.9735615E-03    7  3.7500292E-04    8  2.8648922E-03
    9  2.1667201E-03   10 -1.1598795E-03   11 -4.6362463E-05

 GRADIENT NORM     0.005789  GRADIENT THRESHOLD     0.500000

 EIGENVALUES OF THE ESTIMATED HESSIAN
  0.5786E-02  0.8314E-02  0.1498E-01  0.3253E-01  0.4136E-01  0.7656E-01
  0.1128      0.1417      0.2871      0.3913      0.4234    

 PREDICTED ENERGY CHANGE    -0.182E-03

 MAX GRADIENT      0.003974  THRESHOLD              0.000045 CONVERGED NO
 RMS GRADIENT      0.001746  THRESHOLD              0.000030 CONVERGED NO
 MAX DISPLAC.      0.081612  THRESHOLD              0.000180 CONVERGED NO
 RMS DISPLAC.      0.033533  THRESHOLD              0.000120 CONVERGED NO
 TTTTTTTTTTTTTTTTTTTTTTTTTTTTTT OPTI        TELAPSE       64.74 TCPU       62.16
 *******************************************************************************
 COORDINATE AND CELL OPTIMIZATION - POINT    3
 *******************************************************************************
 LATTICE PARAMETERS (ANGSTROMS AND DEGREES) - BOHR = 0.5291772083 ANGSTROM
 PRIMITIVE CELL - CENTRING CODE 1/0 VOLUME=   297.348751 - DENSITY  2.990 g/cm^3
         A              B              C           ALPHA      BETA       GAMMA 
     6.45124965     7.58798377     6.07429497    90.000000  90.000000  90.000000
 *******************************************************************************
 ATOMS IN THE ASYMMETRIC UNIT    3 - ATOMS IN THE UNIT CELL:   12
     ATOM                 X/A                 Y/B                 Z/C    
 *******************************************************************************
      1 T  30 ZN   -4.153821464841E-01  3.746249512955E-01  3.750108279195E-01
      2 F  30 ZN    4.153821464841E-01 -3.746249512955E-01 -1.249891720805E-01
      3 F  30 ZN   -8.461785351591E-02 -1.253750487045E-01 -1.249891720805E-01
      4 F  30 ZN    8.461785351591E-02  1.253750487045E-01  3.750108279195E-01
      5 T  17 CL   -4.254157860936E-01  3.743123501484E-01 -2.659947234532E-03
      6 F  17 CL    4.254157860936E-01 -3.743123501484E-01  4.973400527655E-01
      7 F  17 CL   -7.458421390643E-02 -1.256876498516E-01  4.973400527655E-01
      8 F  17 CL    7.458421390643E-02  1.256876498516E-01 -2.659947234532E-03
      9 T  17 CL   -4.188775487754E-01 -1.270658970991E-01  5.491193150540E-04
     10 F  17 CL    4.188775487754E-01  1.270658970991E-01 -4.994508806849E-01
     11 F  17 CL   -8.112245122464E-02  3.729341029009E-01 -4.994508806849E-01
     12 F  17 CL    8.112245122464E-02 -3.729341029009E-01  5.491193150540E-04

 T = ATOM BELONGING TO THE ASYMMETRIC UNIT

 TOTAL ENERGY(DFT)(AU)( 11) -1.0797421947195E+04     DE (AU)   -1.966E-04

 UPDATED TRUST RADIUS     0.500E+00

 SYMMETRY ALLOWED FORCES  (COORDINATE, FORCE)

    1  3.8703471E-05    2 -4.4141756E-04    3  1.6417202E-04    4  5.6556295E-05
    5  1.7424445E-04    6 -2.1929766E-04    7  2.0031977E-04    8 -1.1742629E-05
    9 -9.5022883E-05   10 -3.8034470E-04   11 -2.3438481E-05

 GRADIENT NORM     0.000707  GRADIENT THRESHOLD     0.500000

 EIGENVALUES OF THE ESTIMATED HESSIAN
  0.5835E-02  0.8682E-02  0.1436E-01  0.3113E-01  0.4139E-01  0.7721E-01
  0.1068      0.1472      0.2898      0.3911      0.4218    

 PREDICTED ENERGY CHANGE    -0.434E-05

 MAX GRADIENT      0.000441  THRESHOLD              0.000045 CONVERGED NO
 RMS GRADIENT      0.000213  THRESHOLD              0.000030 CONVERGED NO
 MAX DISPLAC.      0.012179  THRESHOLD              0.000180 CONVERGED NO
 RMS DISPLAC.      0.006322  THRESHOLD              0.000120 CONVERGED NO
 TTTTTTTTTTTTTTTTTTTTTTTTTTTTTT OPTI        TELAPSE       90.97 TCPU       88.17
 *******************************************************************************
 COORDINATE AND CELL OPTIMIZATION - POINT    4
 *******************************************************************************
 LATTICE PARAMETERS (ANGSTROMS AND DEGREES) - BOHR = 0.5291772083 ANGSTROM
 PRIMITIVE CELL - CENTRING CODE 1/0 VOLUME=   297.444605 - DENSITY  2.989 g/cm^3
         A              B              C           ALPHA      BETA       GAMMA 
     6.44703348     7.59625387     6.07360718    90.000000  90.000000  90.000000
 *******************************************************************************
 ATOMS IN THE ASYMMETRIC UNIT    3 - ATOMS IN THE UNIT CELL:   12
     ATOM                 X/A                 Y/B                 Z/C    
 *******************************************************************************
      1 T  30 ZN   -4.155615143425E-01  3.745250611552E-01  3.750058386004E-01
      2 F  30 ZN    4.155615143425E-01 -3.745250611552E-01 -1.249941613996E-01
      3 F  30 ZN   -8.443848565746E-02 -1.254749388448E-01 -1.249941613996E-01
      4 F  30 ZN    8.443848565746E-02  1.254749388448E-01  3.750058386004E-01
      5 T  17 CL   -4.252354732325E-01  3.745441329291E-01 -2.819805180643E-03
      6 F  17 CL    4.252354732325E-01 -3.745441329291E-01  4.971801948194E-01
      7 F  17 CL   -7.476452676747E-02 -1.254558670709E-01  4.971801948194E-01
      8 F  17 CL    7.476452676747E-02  1.254558670709E-01 -2.819805180643E-03
      9 T  17 CL   -4.187071829441E-01 -1.271921812531E-01  7.139665802623E-04
     10 F  17 CL    4.187071829441E-01  1.271921812531E-01 -4.992860334197E-01
     11 F  17 CL   -8.129281705589E-02  3.728078187469E-01 -4.992860334197E-01
     12 F  17 CL    8.129281705589E-02 -3.728078187469E-01  7.139665802623E-04

 T = ATOM BELONGING TO THE ASYMMETRIC UNIT

 TOTAL ENERGY(DFT)(AU)( 12) -1.0797421953285E+04     DE (AU)   -6.089E-06

 UPDATED TRUST RADIUS     0.500E+00

 SYMMETRY ALLOWED FORCES  (COORDINATE, FORCE)

    1 -2.4693471E-04    2 -3.6574663E-04    3 -5.6315415E-05    4  4.7541149E-06
    5  1.4444975E-04    6 -1.9295722E-05    7 -1.4436381E-04    8 -6.5072993E-05
    9 -1.2890543E-04   10 -7.0670995E-05   11 -1.6710733E-05

 GRADIENT NORM     0.000516  GRADIENT THRESHOLD     0.500000

 EIGENVALUES OF THE ESTIMATED HESSIAN
  0.6219E-02  0.7527E-02  0.1192E-01  0.2601E-01  0.4171E-01  0.7669E-01
  0.9938E-01  0.1444      0.2797      0.4026      0.4548    

 PREDICTED ENERGY CHANGE    -0.209E-05

 MAX GRADIENT      0.000366  THRESHOLD              0.000045 CONVERGED NO
 RMS GRADIENT      0.000156  THRESHOLD              0.000030 CONVERGED NO
 MAX DISPLAC.      0.010710  THRESHOLD              0.000180 CONVERGED NO
 RMS DISPLAC.      0.005252  THRESHOLD              0.000120 CONVERGED NO
 TTTTTTTTTTTTTTTTTTTTTTTTTTTTTT OPTI        TELAPSE      118.85 TCPU      115.81
 *******************************************************************************
 COORDINATE AND CELL OPTIMIZATION - POINT    5
 *******************************************************************************
 LATTICE PARAMETERS (ANGSTROMS AND DEGREES) - BOHR = 0.5291772083 ANGSTROM
 PRIMITIVE CELL - CENTRING CODE 1/0 VOLUME=   297.318174 - DENSITY  2.991 g/cm^3
         A              B              C           ALPHA      BETA       GAMMA 
     6.44180521     7.60094389     6.07220383    90.000000  90.000000  90.000000
 *******************************************************************************
 ATOMS IN THE ASYMMETRIC UNIT    3 - ATOMS IN THE UNIT CELL:   12
     ATOM                 X/A                 Y/B                 Z/C    
 *******************************************************************************
      1 T  30 ZN   -4.156349686410E-01  3.744042523772E-01  3.750126701883E-01
      2 F  30 ZN    4.156349686410E-01 -3.744042523772E-01 -1.249873298117E-01
      3 F  30 ZN   -8.436503135904E-02 -1.255957476228E-01 -1.249873298117E-01
      4 F  30 ZN    8.436503135904E-02  1.255957476228E-01  3.750126701883E-01
      5 T  17 CL   -4.250076628972E-01  3.747848993162E-01 -2.917687274524E-03
      6 F  17 CL    4.250076628972E-01 -3.747848993162E-01  4.970823127255E-01
      7 F  17 CL   -7.499233710285E-02 -1.252151006838E-01  4.970823127255E-01
      8 F  17 CL    7.499233710285E-02  1.252151006838E-01 -2.917687274524E-03
      9 T  17 CL   -4.188096188610E-01 -1.271734522676E-01  8.050170861778E-04
     10 F  17 CL    4.188096188610E-01  1.271734522676E-01 -4.991949829138E-01
     11 F  17 CL   -8.119038113899E-02  3.728265477324E-01 -4.991949829138E-01
     12 F  17 CL    8.119038113899E-02 -3.728265477324E-01  8.050170861778E-04

 T = ATOM BELONGING TO THE ASYMMETRIC UNIT

 TOTAL ENERGY(DFT)(AU)(  9) -1.0797421956048E+04     DE (AU)   -2.763E-06

 UPDATED TRUST RADIUS     0.500E+00

 SYMMETRY ALLOWED FORCES  (COORDINATE, FORCE)

    1 -3.1516094E-04    2 -2.1432026E-04    3 -1.4453598E-04    4 -2.7799614E-05
    5  4.3249926E-05    6  1.6245192E-05    7 -2.5501485E-04    8 -4.0700590E-06
    9  4.1906173E-05   10  9.2640925E-05   11 -1.8809341E-06

 GRADIENT NORM     0.000494  GRADIENT THRESHOLD     0.500000

 EIGENVALUES OF THE ESTIMATED HESSIAN
  0.5857E-02  0.6928E-02  0.1260E-01  0.2530E-01  0.4326E-01  0.7240E-01
  0.9469E-01  0.1456      0.2714      0.3952      0.4503    

 PREDICTED ENERGY CHANGE    -0.664E-06

 MAX GRADIENT      0.000315  THRESHOLD              0.000045 CONVERGED NO
 RMS GRADIENT      0.000149  THRESHOLD              0.000030 CONVERGED NO
 MAX DISPLAC.      0.004736  THRESHOLD              0.000180 CONVERGED NO
 RMS DISPLAC.      0.002652  THRESHOLD              0.000120 CONVERGED NO
 TTTTTTTTTTTTTTTTTTTTTTTTTTTTTT OPTI        TELAPSE      142.39 TCPU      138.93
 *******************************************************************************
 COORDINATE AND CELL OPTIMIZATION - POINT    6
 *******************************************************************************
 LATTICE PARAMETERS (ANGSTROMS AND DEGREES) - BOHR = 0.5291772083 ANGSTROM
 PRIMITIVE CELL - CENTRING CODE 1/0 VOLUME=   297.410599 - DENSITY  2.990 g/cm^3
         A              B              C           ALPHA      BETA       GAMMA 
     6.44099891     7.60447246     6.07203303    90.000000  90.000000  90.000000
 *******************************************************************************
 ATOMS IN THE ASYMMETRIC UNIT    3 - ATOMS IN THE UNIT CELL:   12
     ATOM                 X/A                 Y/B                 Z/C    
 *******************************************************************************
      1 T  30 ZN   -4.157536527352E-01  3.743094511507E-01  3.750118193260E-01
      2 F  30 ZN    4.157536527352E-01 -3.743094511507E-01 -1.249881806740E-01
      3 F  30 ZN   -8.424634726477E-02 -1.256905488493E-01 -1.249881806740E-01
      4 F  30 ZN    8.424634726477E-02  1.256905488493E-01  3.750118193260E-01
      5 T  17 CL   -4.249771278893E-01  3.749345098282E-01 -2.922246037078E-03
      6 F  17 CL    4.249771278893E-01 -3.749345098282E-01  4.970777539629E-01
      7 F  17 CL   -7.502287211066E-02 -1.250654901718E-01  4.970777539629E-01
      8 F  17 CL    7.502287211066E-02  1.250654901718E-01 -2.922246037078E-03
      9 T  17 CL   -4.187943148375E-01 -1.271892142545E-01  8.104267110486E-04
     10 F  17 CL    4.187943148375E-01  1.271892142545E-01 -4.991895732890E-01
     11 F  17 CL   -8.120568516248E-02  3.728107857455E-01 -4.991895732890E-01
     12 F  17 CL    8.120568516248E-02 -3.728107857455E-01  8.104267110486E-04

 T = ATOM BELONGING TO THE ASYMMETRIC UNIT

 TOTAL ENERGY(DFT)(AU)( 10) -1.0797421956668E+04     DE (AU)   -6.200E-07

 UPDATED TRUST RADIUS     0.500E+00

 SYMMETRY ALLOWED FORCES  (COORDINATE, FORCE)

    1 -2.1465559E-04    2 -1.3365371E-04    3 -9.4024083E-05    4 -2.9848224E-05
    5 -1.6671773E-05    6  3.5120543E-05    7 -1.7246620E-04    8  2.6157808E-05
    9  1.1861036E-05   10  7.9708750E-05   11  3.7857429E-07

 GRADIENT NORM     0.000335  GRADIENT THRESHOLD     0.500000

 EIGENVALUES OF THE ESTIMATED HESSIAN
  0.6562E-02  0.7734E-02  0.1241E-01  0.2320E-01  0.3974E-01  0.5804E-01
  0.9473E-01  0.1466      0.2438      0.3317      0.4162    

 PREDICTED ENERGY CHANGE    -0.490E-06

 MAX GRADIENT      0.000215  THRESHOLD              0.000045 CONVERGED NO
 RMS GRADIENT      0.000101  THRESHOLD              0.000030 CONVERGED NO
 MAX DISPLAC.      0.003018  THRESHOLD              0.000180 CONVERGED NO
 RMS DISPLAC.      0.001523  THRESHOLD              0.000120 CONVERGED NO
 TTTTTTTTTTTTTTTTTTTTTTTTTTTTTT OPTI        TELAPSE      169.95 TCPU      163.81
 *******************************************************************************
 COORDINATE AND CELL OPTIMIZATION - POINT    7
 *******************************************************************************
 LATTICE PARAMETERS (ANGSTROMS AND DEGREES) - BOHR = 0.5291772083 ANGSTROM
 PRIMITIVE CELL - CENTRING CODE 1/0 VOLUME=   297.405393 - DENSITY  2.990 g/cm^3
         A              B              C           ALPHA      BETA       GAMMA 
     6.44085075     7.60499568     6.07164865    90.000000  90.000000  90.000000
 *******************************************************************************
 ATOMS IN THE ASYMMETRIC UNIT    3 - ATOMS IN THE UNIT CELL:   12
     ATOM                 X/A                 Y/B                 Z/C    
 *******************************************************************************
      1 T  30 ZN   -4.158624346944E-01  3.742056507283E-01  3.750125712127E-01
      2 F  30 ZN    4.158624346944E-01 -3.742056507283E-01 -1.249874287873E-01
      3 F  30 ZN   -8.413756530564E-02 -1.257943492717E-01 -1.249874287873E-01
      4 F  30 ZN    8.413756530564E-02  1.257943492717E-01  3.750125712127E-01
      5 T  17 CL   -4.249739010754E-01  3.749990912579E-01 -2.919778682723E-03
      6 F  17 CL    4.249739010754E-01 -3.749990912579E-01  4.970802213173E-01
      7 F  17 CL   -7.502609892459E-02 -1.250009087421E-01  4.970802213173E-01
      8 F  17 CL    7.502609892459E-02  1.250009087421E-01 -2.919778682723E-03
      9 T  17 CL   -4.187968383066E-01 -1.271193428433E-01  8.072074700453E-04
     10 F  17 CL    4.187968383066E-01  1.271193428433E-01 -4.991927925300E-01
     11 F  17 CL   -8.120316169343E-02  3.728806571567E-01 -4.991927925300E-01
     12 F  17 CL    8.120316169343E-02 -3.728806571567E-01  8.072074700453E-04

 T = ATOM BELONGING TO THE ASYMMETRIC UNIT

 TOTAL ENERGY(DFT)(AU)( 11) -1.0797421957319E+04     DE (AU)   -6.512E-07

 UPDATED TRUST RADIUS     0.500E+00

 SYMMETRY ALLOWED FORCES  (COORDINATE, FORCE)

    1 -4.3029554E-05    2 -4.3789036E-05    3 -8.2675092E-06    4 -1.9246236E-05
    5 -5.3176149E-05    6  2.8783528E-05    7 -1.1340644E-05    8  5.0683880E-05
    9  1.5832335E-05   10  1.0093668E-05   11  6.8957075E-06

 GRADIENT NORM     0.000105  GRADIENT THRESHOLD     0.500000

 EIGENVALUES OF THE ESTIMATED HESSIAN
  0.6427E-02  0.8362E-02  0.1298E-01  0.1944E-01  0.3578E-01  0.4972E-01
  0.9617E-01  0.1475      0.2392      0.3440      0.4141    

 PREDICTED ENERGY CHANGE    -0.137E-06

 MAX GRADIENT      0.000053  THRESHOLD              0.000045 CONVERGED NO
 RMS GRADIENT      0.000032  THRESHOLD              0.000030 CONVERGED NO
 MAX DISPLAC.      0.001924  THRESHOLD              0.000180 CONVERGED NO
 RMS DISPLAC.      0.001163  THRESHOLD              0.000120 CONVERGED NO
 TTTTTTTTTTTTTTTTTTTTTTTTTTTTTT OPTI        TELAPSE      197.24 TCPU      190.88
 *******************************************************************************
 COORDINATE AND CELL OPTIMIZATION - POINT    8
 *******************************************************************************
 LATTICE PARAMETERS (ANGSTROMS AND DEGREES) - BOHR = 0.5291772083 ANGSTROM
 PRIMITIVE CELL - CENTRING CODE 1/0 VOLUME=   297.417015 - DENSITY  2.990 g/cm^3
         A              B              C           ALPHA      BETA       GAMMA 
     6.44151451     7.60434463     6.07178004    90.000000  90.000000  90.000000
 *******************************************************************************
 ATOMS IN THE ASYMMETRIC UNIT    3 - ATOMS IN THE UNIT CELL:   12
     ATOM                 X/A                 Y/B                 Z/C    
 *******************************************************************************
      1 T  30 ZN   -4.159414403709E-01  3.741591821008E-01  3.750126869545E-01
      2 F  30 ZN    4.159414403709E-01 -3.741591821008E-01 -1.249873130455E-01
      3 F  30 ZN   -8.405855962907E-02 -1.258408178992E-01 -1.249873130455E-01
      4 F  30 ZN    8.405855962907E-02  1.258408178992E-01  3.750126869545E-01
      5 T  17 CL   -4.250152061625E-01  3.749754825294E-01 -2.903591041108E-03
      6 F  17 CL    4.250152061625E-01 -3.749754825294E-01  4.970964089589E-01
      7 F  17 CL   -7.498479383753E-02 -1.250245174706E-01  4.970964089589E-01
      8 F  17 CL    7.498479383753E-02  1.250245174706E-01 -2.903591041108E-03
      9 T  17 CL   -4.187309683234E-01 -1.270732780814E-01  7.909040866250E-04
     10 F  17 CL    4.187309683234E-01  1.270732780814E-01 -4.992090959134E-01
     11 F  17 CL   -8.126903167665E-02  3.729267219186E-01 -4.992090959134E-01
     12 F  17 CL    8.126903167665E-02 -3.729267219186E-01  7.909040866250E-04

 T = ATOM BELONGING TO THE ASYMMETRIC UNIT

 TOTAL ENERGY(DFT)(AU)( 13) -1.0797421957618E+04     DE (AU)   -2.987E-07

 UPDATED TRUST RADIUS     0.500E+00

 SYMMETRY ALLOWED FORCES  (COORDINATE, FORCE)

    1  2.0218027E-05    2 -1.0515867E-05    3  2.4646812E-05    4 -7.8459886E-06
    5 -3.9655034E-05    6  1.9336366E-05    7  4.3285796E-05    8  3.9618244E-05
    9 -2.7118463E-06   10 -2.0659787E-05   11  8.1759931E-06

 GRADIENT NORM     0.000084  GRADIENT THRESHOLD     0.500000

 EIGENVALUES OF THE ESTIMATED HESSIAN
  0.5677E-02  0.7179E-02  0.1250E-01  0.1637E-01  0.3666E-01  0.4573E-01
  0.9538E-01  0.1407      0.2482      0.3718      0.4179    

 PREDICTED ENERGY CHANGE    -0.687E-07

 MAX GRADIENT      0.000043  THRESHOLD              0.000045 CONVERGED YES
 RMS GRADIENT      0.000025  THRESHOLD              0.000030 CONVERGED YES
 MAX DISPLAC.      0.001864  THRESHOLD              0.000180 CONVERGED NO
 RMS DISPLAC.      0.001142  THRESHOLD              0.000120 CONVERGED NO
 TTTTTTTTTTTTTTTTTTTTTTTTTTTTTT OPTI        TELAPSE      227.32 TCPU      220.69
 *******************************************************************************
 COORDINATE AND CELL OPTIMIZATION - POINT    9
 *******************************************************************************
 LATTICE PARAMETERS (ANGSTROMS AND DEGREES) - BOHR = 0.5291772083 ANGSTROM
 PRIMITIVE CELL - CENTRING CODE 1/0 VOLUME=   297.409140 - DENSITY  2.990 g/cm^3
         A              B              C           ALPHA      BETA       GAMMA 
     6.44198438     7.60341559     6.07191824    90.000000  90.000000  90.000000
 *******************************************************************************
 ATOMS IN THE ASYMMETRIC UNIT    3 - ATOMS IN THE UNIT CELL:   12
     ATOM                 X/A                 Y/B                 Z/C    
 *******************************************************************************
      1 T  30 ZN   -4.160050404231E-01  3.741313239188E-01  3.750148079771E-01
      2 F  30 ZN    4.160050404231E-01 -3.741313239188E-01 -1.249851920229E-01
      3 F  30 ZN   -8.399495957690E-02 -1.258686760812E-01 -1.249851920229E-01
      4 F  30 ZN    8.399495957690E-02  1.258686760812E-01  3.750148079771E-01
      5 T  17 CL   -4.250494726943E-01  3.749311224679E-01 -2.891596847396E-03
      6 F  17 CL    4.250494726943E-01 -3.749311224679E-01  4.971084031526E-01
      7 F  17 CL   -7.495052730570E-02 -1.250688775321E-01  4.971084031526E-01
      8 F  17 CL    7.495052730570E-02  1.250688775321E-01 -2.891596847396E-03
      9 T  17 CL   -4.186544326431E-01 -1.270299859364E-01  7.767888702525E-04
     10 F  17 CL    4.186544326431E-01  1.270299859364E-01 -4.992232111297E-01
     11 F  17 CL   -8.134556735692E-02  3.729700140636E-01 -4.992232111297E-01
     12 F  17 CL    8.134556735692E-02 -3.729700140636E-01  7.767888702525E-04

 T = ATOM BELONGING TO THE ASYMMETRIC UNIT

 TOTAL ENERGY(DFT)(AU)(  9) -1.0797421957938E+04     DE (AU)   -3.208E-07

 UPDATED TRUST RADIUS     0.500E+00

 SYMMETRY ALLOWED FORCES  (COORDINATE, FORCE)

    1  2.6047216E-05    2  6.3044803E-06    3  2.8023859E-05    4  7.8552121E-07
    5 -1.4116200E-05    6  6.5129212E-06    7  3.7345577E-05    8  1.6529196E-05
    9 -4.5967769E-06   10 -1.9884156E-05   11  5.8072488E-06

 GRADIENT NORM     0.000062  GRADIENT THRESHOLD     0.500000

 EIGENVALUES OF THE ESTIMATED HESSIAN
  0.5111E-02  0.7194E-02  0.1232E-01  0.1590E-01  0.3790E-01  0.4428E-01
  0.9128E-01  0.1377      0.2481      0.3461      0.4181    

 PREDICTED ENERGY CHANGE    -0.131E-07

 MAX GRADIENT      0.000037  THRESHOLD              0.000045 CONVERGED YES
 RMS GRADIENT      0.000019  THRESHOLD              0.000030 CONVERGED YES
 MAX DISPLAC.      0.000861  THRESHOLD              0.000180 CONVERGED NO
 RMS DISPLAC.      0.000393  THRESHOLD              0.000120 CONVERGED NO
 TTTTTTTTTTTTTTTTTTTTTTTTTTTTTT OPTI        TELAPSE      251.44 TCPU      244.33
 *******************************************************************************
 COORDINATE AND CELL OPTIMIZATION - POINT   10
 *******************************************************************************
 LATTICE PARAMETERS (ANGSTROMS AND DEGREES) - BOHR = 0.5291772083 ANGSTROM
 PRIMITIVE CELL - CENTRING CODE 1/0 VOLUME=   297.407021 - DENSITY  2.990 g/cm^3
         A              B              C           ALPHA      BETA       GAMMA 
     6.44206149     7.60320583     6.07196981    90.000000  90.000000  90.000000
 *******************************************************************************
 ATOMS IN THE ASYMMETRIC UNIT    3 - ATOMS IN THE UNIT CELL:   12
     ATOM                 X/A                 Y/B                 Z/C    
 *******************************************************************************
      1 T  30 ZN   -4.160281818267E-01  3.741265207421E-01  3.750177467953E-01
      2 F  30 ZN    4.160281818267E-01 -3.741265207421E-01 -1.249822532047E-01
      3 F  30 ZN   -8.397181817330E-02 -1.258734792579E-01 -1.249822532047E-01
      4 F  30 ZN    8.397181817330E-02  1.258734792579E-01  3.750177467953E-01
      5 T  17 CL   -4.250577126130E-01  3.749138474525E-01 -2.888214318083E-03
      6 F  17 CL    4.250577126130E-01 -3.749138474525E-01  4.971117856819E-01
      7 F  17 CL   -7.494228738696E-02 -1.250861525475E-01  4.971117856819E-01
      8 F  17 CL    7.494228738696E-02  1.250861525475E-01 -2.888214318083E-03
      9 T  17 CL   -4.186190590489E-01 -1.270182974930E-01  7.704675227379E-04
     10 F  17 CL    4.186190590489E-01  1.270182974930E-01 -4.992295324773E-01
     11 F  17 CL   -8.138094095113E-02  3.729817025070E-01 -4.992295324773E-01
     12 F  17 CL    8.138094095113E-02 -3.729817025070E-01  7.704675227379E-04

 T = ATOM BELONGING TO THE ASYMMETRIC UNIT

 TOTAL ENERGY(DFT)(AU)(  9) -1.0797421958063E+04     DE (AU)   -1.247E-07

 UPDATED TRUST RADIUS     0.500E+00

 SYMMETRY ALLOWED FORCES  (COORDINATE, FORCE)

    1  5.5763158E-06    2  6.2129922E-06    3  1.8299887E-05    4  2.2038141E-06
    5 -1.8620727E-06    6  8.3745035E-07    7  1.0099282E-05    8  2.5668875E-06
    9 -2.3495427E-06   10 -5.9970300E-06   11  2.1965787E-06

 GRADIENT NORM     0.000024  GRADIENT THRESHOLD     0.500000

 EIGENVALUES OF THE ESTIMATED HESSIAN
  0.5348E-02  0.7452E-02  0.1247E-01  0.1553E-01  0.3743E-01  0.4415E-01
  0.7860E-01  0.1363      0.2377      0.3171      0.4145    

 PREDICTED ENERGY CHANGE    -0.192E-08

 MAX GRADIENT      0.000018  THRESHOLD              0.000045 CONVERGED YES
 RMS GRADIENT      0.000007  THRESHOLD              0.000030 CONVERGED YES
 MAX DISPLAC.      0.000161  THRESHOLD              0.000180 CONVERGED YES
 RMS DISPLAC.      0.000082  THRESHOLD              0.000120 CONVERGED YES

 CONVERGENCE TESTS SATISFIED AFTER  10 ENERGY AND GRADIENT CALCULATIONS
 +++++++++++++++++++++++++++++++++++++++++++++++++++++++++++++++++++++++++++++++
 FINALRUN OPTION: RE-STARTING OPTIMIZATION
 +++++++++++++++++++++++++++++++++++++++++++++++++++++++++++++++++++++++++++++++
 TTTTTTTTTTTTTTTTTTTTTTTTTTTTTT OPTI        TELAPSE      275.27 TCPU      267.93
 *******************************************************************************
 COORDINATE AND CELL OPTIMIZATION - POINT   11
 *******************************************************************************
 LATTICE PARAMETERS (ANGSTROMS AND DEGREES) - BOHR = 0.5291772083 ANGSTROM
 PRIMITIVE CELL - CENTRING CODE 1/0 VOLUME=   297.406118 - DENSITY  2.990 g/cm^3
         A              B              C           ALPHA      BETA       GAMMA 
     6.44201766     7.60326072     6.07194883    90.000000  90.000000  90.000000
 *******************************************************************************
 ATOMS IN THE ASYMMETRIC UNIT    3 - ATOMS IN THE UNIT CELL:   12
     ATOM                 X/A                 Y/B                 Z/C    
 *******************************************************************************
      1 T  30 ZN   -4.160327847782E-01  3.741275336809E-01  3.750206298310E-01
      2 F  30 ZN    4.160327847782E-01 -3.741275336809E-01 -1.249793701690E-01
      3 F  30 ZN   -8.396721522176E-02 -1.258724663191E-01 -1.249793701690E-01
      4 F  30 ZN    8.396721522176E-02  1.258724663191E-01  3.750206298310E-01
      5 T  17 CL   -4.250551680084E-01  3.749123934084E-01 -2.888595110141E-03
      6 F  17 CL    4.250551680084E-01 -3.749123934084E-01  4.971114048899E-01
      7 F  17 CL   -7.494483199157E-02 -1.250876065916E-01  4.971114048899E-01
      8 F  17 CL    7.494483199157E-02  1.250876065916E-01 -2.888595110141E-03
      9 T  17 CL   -4.186124487352E-01 -1.270171229336E-01  7.679652791823E-04
     10 F  17 CL    4.186124487352E-01  1.270171229336E-01 -4.992320347208E-01
     11 F  17 CL   -8.138755126484E-02  3.729828770664E-01 -4.992320347208E-01
     12 F  17 CL    8.138755126484E-02 -3.729828770664E-01  7.679652791823E-04

 T = ATOM BELONGING TO THE ASYMMETRIC UNIT

 N OF POINTS AFTER LAST CHANGE:    11

 REFERENCE GEOMETRY WILL BE CHANGED

 TOTAL ENERGY(DFT)(AU)( 11) -1.0797422049401E+04     DE (AU)   -9.134E-05

 SYMMETRY ALLOWED FORCES  (COORDINATE, FORCE)

    1  2.3476812E-05    2  8.1034178E-05    3  1.0016069E-04    4  3.4470609E-05
    5  6.5770791E-06    6 -2.9934501E-05    7 -7.0692608E-05    8 -7.8404370E-05
    9  9.0462684E-06   10 -7.0672347E-05   11 -5.3243801E-05

 GRADIENT NORM     0.000196  GRADIENT THRESHOLD     0.500000

 HESSIAN UPDATE SKIPPED

 EIGENVALUES OF THE ESTIMATED HESSIAN
  0.5348E-02  0.7452E-02  0.1247E-01  0.1553E-01  0.3743E-01  0.4415E-01
  0.7860E-01  0.1363      0.2377      0.3171      0.4145    

 PREDICTED ENERGY CHANGE    -0.122E-05

 MAX GRADIENT      0.000100  THRESHOLD              0.000045 CONVERGED NO
 RMS GRADIENT      0.000059  THRESHOLD              0.000030 CONVERGED NO
 MAX DISPLAC.      0.013129  THRESHOLD              0.000180 CONVERGED NO
 RMS DISPLAC.      0.005988  THRESHOLD              0.000120 CONVERGED NO
 TTTTTTTTTTTTTTTTTTTTTTTTTTTTTT OPTI        TELAPSE      303.70 TCPU      296.07
 *******************************************************************************
 COORDINATE AND CELL OPTIMIZATION - POINT   12
 *******************************************************************************
 LATTICE PARAMETERS (ANGSTROMS AND DEGREES) - BOHR = 0.5291772083 ANGSTROM
 PRIMITIVE CELL - CENTRING CODE 1/0 VOLUME=   297.392804 - DENSITY  2.990 g/cm^3
         A              B              C           ALPHA      BETA       GAMMA 
     6.43864246     7.60464193     6.07375649    90.000000  90.000000  90.000000
 *******************************************************************************
 ATOMS IN THE ASYMMETRIC UNIT    3 - ATOMS IN THE UNIT CELL:   12
     ATOM                 X/A                 Y/B                 Z/C    
 *******************************************************************************
      1 T  30 ZN   -4.156334641155E-01  3.742988919924E-01  3.750182238303E-01
      2 F  30 ZN    4.156334641155E-01 -3.742988919924E-01 -1.249817761697E-01
      3 F  30 ZN   -8.436653588448E-02 -1.257011080076E-01 -1.249817761697E-01
      4 F  30 ZN    8.436653588448E-02  1.257011080076E-01  3.750182238303E-01
      5 T  17 CL   -4.249113129534E-01  3.750315621601E-01 -2.818836002697E-03
      6 F  17 CL    4.249113129534E-01 -3.750315621601E-01  4.971811639973E-01
      7 F  17 CL   -7.508868704659E-02 -1.249684378399E-01  4.971811639973E-01
      8 F  17 CL    7.508868704659E-02  1.249684378399E-01 -2.818836002697E-03
      9 T  17 CL   -4.191516105083E-01 -1.270989993643E-01  7.006121723640E-04
     10 F  17 CL    4.191516105083E-01  1.270989993643E-01 -4.992993878276E-01
     11 F  17 CL   -8.084838949167E-02  3.729010006357E-01 -4.992993878276E-01
     12 F  17 CL    8.084838949167E-02 -3.729010006357E-01  7.006121723640E-04

 T = ATOM BELONGING TO THE ASYMMETRIC UNIT

 TOTAL ENERGY(DFT)(AU)( 10) -1.0797422049633E+04     DE (AU)   -2.318E-07

 UPDATED TRUST RADIUS     0.497E-02

 SYMMETRY ALLOWED FORCES  (COORDINATE, FORCE)

    1 -3.6799990E-05    2  7.8399955E-05    3  9.0515931E-06    4 -3.8887055E-05
    5 -8.2171643E-06    6 -2.4585757E-05    7 -1.4900091E-05    8  1.5162315E-05
    9 -5.9903243E-06   10 -2.8490901E-05   11  1.3241640E-05

 GRADIENT NORM     0.000106  GRADIENT THRESHOLD     0.500000

 EIGENVALUES OF THE ESTIMATED HESSIAN
  0.4966E-02  0.7518E-02  0.1253E-01  0.1514E-01  0.3621E-01  0.4569E-01
  0.7852E-01  0.1362      0.2387      0.3190      0.4123    

 PREDICTED ENERGY CHANGE    -0.746E-07

 MAX GRADIENT      0.000078  THRESHOLD              0.000045 CONVERGED NO
 RMS GRADIENT      0.000032  THRESHOLD              0.000030 CONVERGED NO
 MAX DISPLAC.      0.001850  THRESHOLD              0.000180 CONVERGED NO
 RMS DISPLAC.      0.000937  THRESHOLD              0.000120 CONVERGED NO
 TTTTTTTTTTTTTTTTTTTTTTTTTTTTTT OPTI        TELAPSE      330.19 TCPU      322.31
 *******************************************************************************
 COORDINATE AND CELL OPTIMIZATION - POINT   13
 *******************************************************************************
 LATTICE PARAMETERS (ANGSTROMS AND DEGREES) - BOHR = 0.5291772083 ANGSTROM
 PRIMITIVE CELL - CENTRING CODE 1/0 VOLUME=   297.395179 - DENSITY  2.990 g/cm^3
         A              B              C           ALPHA      BETA       GAMMA 
     6.43791530     7.60555577     6.07376115    90.000000  90.000000  90.000000
 *******************************************************************************
 ATOMS IN THE ASYMMETRIC UNIT    3 - ATOMS IN THE UNIT CELL:   12
[...]
   30-  30      319.5633 (B2 )    0.00    0.00   12.18    0.00    0.00    0.00
   31-  31      320.5475 (A2 )    0.00   22.20    0.00    0.00    0.00    0.00
   32-  32      322.2364 (B1 )    0.00    0.00    0.00    0.00    0.15    0.00
   33-  33      327.2126 (A1 )    0.78    0.00    0.00   11.51    0.00   27.76
   34-  34      332.8756 (B1 )    0.00    0.00    0.00    0.00    3.65    0.00
   35-  35      339.2106 (B2 )    0.00    0.00    1.08    0.00    0.00    0.00
   36-  36      344.4805 (A2 )    0.00   10.41    0.00    0.00    0.00    0.00

 <RAMAN><RAMAN><RAMAN><RAMAN><RAMAN><RAMAN><RAMAN><RAMAN><RAMAN><RAMAN><RAMAN>
 <RAMAN><RAMAN><RAMAN><RAMAN><RAMAN><RAMAN><RAMAN><RAMAN><RAMAN><RAMAN><RAMAN>


 NORMAL MODES NORMALIZED TO CLASSICAL AMPLITUDES (IN BOHR)

 FREQ(CM**-1)      0.00      0.00      0.00     52.72     55.69     64.40

 AT.   1 ZN X     0.0000    0.0000    0.0432    0.0732   -0.0043   -0.0119
            Y    -0.0432    0.0000    0.0000    0.0111   -0.0267    0.0518
            Z     0.0000    0.0432   -0.0000    0.0018    0.0662   -0.0036
 AT.   2 ZN X     0.0000   -0.0000    0.0432   -0.0732    0.0043   -0.0119
            Y    -0.0432   -0.0000    0.0000   -0.0111    0.0267    0.0518
            Z    -0.0000    0.0432    0.0000    0.0018    0.0662    0.0036
 AT.   3 ZN X    -0.0000   -0.0000    0.0432   -0.0732   -0.0043   -0.0119
            Y    -0.0432    0.0000   -0.0000    0.0111    0.0267   -0.0518
            Z     0.0000    0.0432    0.0000    0.0018   -0.0662    0.0036
 AT.   4 ZN X    -0.0000    0.0000    0.0432    0.0732    0.0043   -0.0119
            Y    -0.0432   -0.0000   -0.0000   -0.0111   -0.0267   -0.0518
            Z    -0.0000    0.0432   -0.0000    0.0018   -0.0662   -0.0036
 AT.   5 CL X     0.0000   -0.0000    0.0432   -0.0336   -0.0112    0.0305
            Y    -0.0432   -0.0000    0.0000    0.0074    0.0186    0.0694
            Z     0.0000    0.0432   -0.0000    0.0031    0.0583   -0.0038
 AT.   6 CL X     0.0000    0.0000    0.0432    0.0336    0.0112    0.0305
            Y    -0.0432    0.0000    0.0000   -0.0074   -0.0186    0.0694
            Z    -0.0000    0.0432    0.0000    0.0031    0.0583    0.0038
 AT.   7 CL X    -0.0000    0.0000    0.0432    0.0336   -0.0112    0.0305
            Y    -0.0432   -0.0000   -0.0000    0.0074   -0.0186   -0.0694
            Z     0.0000    0.0432    0.0000    0.0031   -0.0583    0.0038
 AT.   8 CL X    -0.0000   -0.0000    0.0432   -0.0336    0.0112    0.0305
            Y    -0.0432    0.0000   -0.0000   -0.0074    0.0186   -0.0694
            Z    -0.0000    0.0432   -0.0000    0.0031   -0.0583   -0.0038
 AT.   9 CL X    -0.0000   -0.0000    0.0432   -0.0712    0.0142   -0.0088
            Y    -0.0432   -0.0000    0.0000   -0.0009    0.0450    0.0483
            Z    -0.0000    0.0432    0.0000   -0.0064   -0.0042    0.0032
 AT.  10 CL X    -0.0000    0.0000    0.0432    0.0712   -0.0142   -0.0088
            Y    -0.0432    0.0000    0.0000    0.0009   -0.0450    0.0483
            Z     0.0000    0.0432   -0.0000   -0.0064   -0.0042   -0.0032
 AT.  11 CL X     0.0000    0.0000    0.0432    0.0712    0.0142   -0.0088
            Y    -0.0432   -0.0000   -0.0000   -0.0009   -0.0450   -0.0483
            Z    -0.0000    0.0432   -0.0000   -0.0064    0.0042   -0.0032
 AT.  12 CL X     0.0000   -0.0000    0.0432   -0.0712   -0.0142   -0.0088
            Y    -0.0432    0.0000   -0.0000    0.0009    0.0450   -0.0483
            Z     0.0000    0.0432    0.0000   -0.0064    0.0042    0.0032

 FREQ(CM**-1)     70.21     84.56     88.80     93.44     93.56     98.33

 AT.   1 ZN X    -0.0005   -0.0085    0.0114    0.0369   -0.0034   -0.0100
            Y    -0.0429    0.0083    0.0319   -0.0135    0.0113   -0.0406
            Z    -0.0290   -0.0081    0.0124    0.0051   -0.0352    0.0111
 AT.   2 ZN X     0.0005    0.0085   -0.0114    0.0369   -0.0034    0.0100
            Y     0.0429   -0.0083   -0.0319   -0.0135    0.0113    0.0406
            Z    -0.0290   -0.0081    0.0124   -0.0051    0.0352    0.0111
 AT.   3 ZN X    -0.0005    0.0085    0.0114   -0.0369   -0.0034    0.0100
            Y     0.0429    0.0083   -0.0319   -0.0135   -0.0113   -0.0406
            Z     0.0290   -0.0081   -0.0124    0.0051    0.0352    0.0111
 AT.   4 ZN X     0.0005   -0.0085   -0.0114   -0.0369   -0.0034   -0.0100
            Y    -0.0429   -0.0083    0.0319   -0.0135   -0.0113    0.0406
            Z     0.0290   -0.0081   -0.0124   -0.0051   -0.0352    0.0111
 AT.   5 CL X     0.0181   -0.0784    0.0554    0.0708   -0.0056   -0.0390
            Y     0.0465   -0.0505    0.0125    0.0114   -0.0098    0.0113
            Z    -0.0268   -0.0022    0.0095    0.0013   -0.0324    0.0079
 AT.   6 CL X    -0.0181    0.0784   -0.0554    0.0708   -0.0056    0.0390
            Y    -0.0465    0.0505   -0.0125    0.0114   -0.0098   -0.0113
            Z    -0.0268   -0.0022    0.0095   -0.0013    0.0324    0.0079
 AT.   7 CL X     0.0181    0.0784    0.0554   -0.0708   -0.0056    0.0390
            Y    -0.0465   -0.0505   -0.0125    0.0114    0.0098    0.0113
            Z     0.0268   -0.0022   -0.0095    0.0013    0.0324    0.0079
 AT.   8 CL X    -0.0181   -0.0784   -0.0554   -0.0708   -0.0056   -0.0390
            Y     0.0465    0.0505    0.0125    0.0114    0.0098   -0.0113
            Z     0.0268   -0.0022   -0.0095   -0.0013   -0.0324    0.0079
 AT.   9 CL X    -0.0178    0.0164   -0.0077   -0.0287    0.0119   -0.0081
            Y     0.0539   -0.0235   -0.0041    0.0133   -0.0161    0.0526
            Z    -0.0306    0.0170   -0.0626    0.0145    0.0715   -0.0282
 AT.  10 CL X     0.0178   -0.0164    0.0077   -0.0287    0.0119    0.0081
            Y    -0.0539    0.0235    0.0041    0.0133   -0.0161   -0.0526
            Z    -0.0306    0.0170   -0.0626   -0.0145   -0.0715   -0.0282
 AT.  11 CL X    -0.0178   -0.0164   -0.0077    0.0287    0.0119    0.0081
            Y    -0.0539   -0.0235    0.0041    0.0133    0.0161    0.0526
            Z     0.0306    0.0170    0.0626    0.0145   -0.0715   -0.0282
 AT.  12 CL X     0.0178    0.0164    0.0077    0.0287    0.0119   -0.0081
            Y     0.0539    0.0235   -0.0041    0.0133    0.0161   -0.0526
            Z     0.0306    0.0170    0.0626   -0.0145    0.0715   -0.0282

 FREQ(CM**-1)    108.46    111.00    115.75    118.33    119.25    132.72

 AT.   1 ZN X     0.0246    0.0088   -0.0140   -0.0139   -0.0027   -0.0127
            Y     0.0306    0.0149    0.0352   -0.0030   -0.0006    0.0016
            Z     0.0106   -0.0159    0.0221    0.0038    0.0498    0.0337
 AT.   2 ZN X     0.0246    0.0088    0.0140    0.0139   -0.0027   -0.0127
            Y     0.0306    0.0149   -0.0352    0.0030   -0.0006    0.0016
            Z    -0.0106    0.0159    0.0221    0.0038   -0.0498   -0.0337
 AT.   3 ZN X     0.0246   -0.0088    0.0140   -0.0139    0.0027   -0.0127
            Y    -0.0306    0.0149    0.0352    0.0030   -0.0006   -0.0016
            Z    -0.0106   -0.0159    0.0221   -0.0038    0.0498   -0.0337
 AT.   4 ZN X     0.0246   -0.0088   -0.0140    0.0139    0.0027   -0.0127
            Y    -0.0306    0.0149   -0.0352   -0.0030   -0.0006   -0.0016
            Z     0.0106    0.0159    0.0221   -0.0038   -0.0498    0.0337
 AT.   5 CL X    -0.0653   -0.0019    0.0041    0.0575   -0.0100    0.0032
            Y    -0.0075   -0.0024   -0.0268    0.0278    0.0228    0.0265
            Z     0.0099   -0.0106    0.0113    0.0024    0.0343    0.0211
 AT.   6 CL X    -0.0653   -0.0019   -0.0041   -0.0575   -0.0100    0.0032
            Y    -0.0075   -0.0024    0.0268   -0.0278    0.0228    0.0265
            Z    -0.0099    0.0106    0.0113    0.0024   -0.0343   -0.0211
 AT.   7 CL X    -0.0653    0.0019   -0.0041    0.0575    0.0100    0.0032
            Y     0.0075   -0.0024   -0.0268   -0.0278    0.0228   -0.0265
            Z    -0.0099   -0.0106    0.0113   -0.0024    0.0343   -0.0211
 AT.   8 CL X    -0.0653    0.0019    0.0041   -0.0575    0.0100    0.0032
            Y     0.0075   -0.0024    0.0268    0.0278    0.0228   -0.0265
            Z     0.0099    0.0106    0.0113   -0.0024   -0.0343    0.0211
 AT.   9 CL X     0.0203    0.0224   -0.0149    0.0041   -0.0039    0.0201
            Y     0.0092   -0.0249    0.0133   -0.0127   -0.0217   -0.0409
            Z    -0.0001    0.0742   -0.0516    0.0511    0.0196    0.0296
 AT.  10 CL X     0.0203    0.0224    0.0149   -0.0041   -0.0039    0.0201
            Y     0.0092   -0.0249   -0.0133    0.0127   -0.0217   -0.0409
            Z     0.0001   -0.0742   -0.0516    0.0511   -0.0196   -0.0296
 AT.  11 CL X     0.0203   -0.0224    0.0149    0.0041    0.0039    0.0201
            Y    -0.0092   -0.0249    0.0133    0.0127   -0.0217    0.0409
            Z     0.0001    0.0742   -0.0516   -0.0511    0.0196   -0.0296
 AT.  12 CL X     0.0203   -0.0224   -0.0149   -0.0041    0.0039    0.0201
            Y    -0.0092   -0.0249   -0.0133   -0.0127   -0.0217    0.0409
            Z    -0.0001   -0.0742   -0.0516   -0.0511   -0.0196    0.0296

 FREQ(CM**-1)    133.86    136.35    245.68    260.06    275.82    296.66

 AT.   1 ZN X     0.0443    0.0338   -0.0014   -0.0043   -0.0091    0.0080
            Y    -0.0125    0.0038   -0.0013    0.0086    0.0094   -0.0114
            Z    -0.0015    0.0073    0.0020   -0.0146   -0.0129    0.0229
 AT.   2 ZN X    -0.0443    0.0338    0.0014    0.0043   -0.0091   -0.0080
            Y     0.0125    0.0038    0.0013   -0.0086    0.0094    0.0114
            Z    -0.0015   -0.0073    0.0020   -0.0146    0.0129    0.0229
 AT.   3 ZN X     0.0443   -0.0338    0.0014   -0.0043   -0.0091   -0.0080
            Y     0.0125    0.0038   -0.0013   -0.0086   -0.0094   -0.0114
            Z     0.0015    0.0073    0.0020    0.0146    0.0129    0.0229
 AT.   4 ZN X    -0.0443   -0.0338   -0.0014    0.0043   -0.0091    0.0080
            Y    -0.0125    0.0038    0.0013    0.0086   -0.0094    0.0114
            Z     0.0015   -0.0073    0.0020    0.0146   -0.0129    0.0229
 AT.   5 CL X    -0.0037   -0.0418    0.0137   -0.0163   -0.0032    0.0017
            Y     0.0253   -0.0332   -0.0309    0.0291    0.0078   -0.0050
            Z     0.0015    0.0053   -0.0273    0.0356   -0.0151   -0.0291
 AT.   6 CL X     0.0037   -0.0418   -0.0137    0.0163   -0.0032   -0.0017
            Y    -0.0253   -0.0332    0.0309   -0.0291    0.0078    0.0050
            Z     0.0015   -0.0053   -0.0273    0.0356    0.0151   -0.0291
 AT.   7 CL X    -0.0037    0.0418   -0.0137   -0.0163   -0.0032   -0.0017
            Y    -0.0253   -0.0332   -0.0309   -0.0291   -0.0078   -0.0050
            Z    -0.0015    0.0053   -0.0273   -0.0356    0.0151   -0.0291
 AT.   8 CL X     0.0037    0.0418    0.0137    0.0163   -0.0032    0.0017
            Y     0.0253   -0.0332    0.0309    0.0291   -0.0078    0.0050
            Z    -0.0015   -0.0053   -0.0273   -0.0356   -0.0151   -0.0291
 AT.   9 CL X     0.0347   -0.0215   -0.0162   -0.0169    0.0198    0.0117
            Y    -0.0262    0.0262    0.0280   -0.0089   -0.0292   -0.0204
            Z     0.0020    0.0079    0.0237    0.0008   -0.0310   -0.0127
 AT.  10 CL X    -0.0347   -0.0215    0.0162    0.0169    0.0198   -0.0117
            Y     0.0262    0.0262   -0.0280    0.0089   -0.0292    0.0204
            Z     0.0020   -0.0079    0.0237    0.0008    0.0310   -0.0127
 AT.  11 CL X     0.0347    0.0215    0.0162   -0.0169    0.0198   -0.0117
            Y     0.0262    0.0262    0.0280    0.0089    0.0292   -0.0204
            Z    -0.0020    0.0079    0.0237   -0.0008    0.0310   -0.0127
 AT.  12 CL X    -0.0347    0.0215   -0.0162    0.0169    0.0198    0.0117
            Y    -0.0262    0.0262   -0.0280   -0.0089    0.0292    0.0204
            Z    -0.0020   -0.0079    0.0237   -0.0008   -0.0310   -0.0127

 FREQ(CM**-1)    302.12    306.80    313.50    314.61    314.68    319.56

 AT.   1 ZN X    -0.0003    0.0206    0.0163    0.0101   -0.0203    0.0153
            Y     0.0245    0.0059    0.0194   -0.0108   -0.0019    0.0122
            Z     0.0099   -0.0115    0.0038   -0.0191    0.0028    0.0045
 AT.   2 ZN X    -0.0003    0.0206   -0.0163    0.0101    0.0203    0.0153
            Y     0.0245    0.0059   -0.0194   -0.0108    0.0019    0.0122
            Z    -0.0099    0.0115    0.0038    0.0191    0.0028   -0.0045
 AT.   3 ZN X     0.0003   -0.0206    0.0163    0.0101    0.0203    0.0153
            Y     0.0245    0.0059   -0.0194    0.0108   -0.0019   -0.0122
            Z     0.0099   -0.0115   -0.0038    0.0191    0.0028   -0.0045
 AT.   4 ZN X     0.0003   -0.0206   -0.0163    0.0101   -0.0203    0.0153
            Y     0.0245    0.0059    0.0194    0.0108    0.0019   -0.0122
            Z    -0.0099    0.0115   -0.0038   -0.0191    0.0028    0.0045
 AT.   5 CL X     0.0145   -0.0054   -0.0056   -0.0107   -0.0059    0.0070
            Y    -0.0248    0.0135    0.0090    0.0270    0.0138   -0.0023
            Z    -0.0120    0.0202   -0.0109    0.0262   -0.0104   -0.0085
 AT.   6 CL X     0.0145   -0.0054    0.0056   -0.0107    0.0059    0.0070
            Y    -0.0248    0.0135   -0.0090    0.0270   -0.0138   -0.0023
            Z     0.0120   -0.0202   -0.0109   -0.0262   -0.0104    0.0085
 AT.   7 CL X    -0.0145    0.0054   -0.0056   -0.0107    0.0059    0.0070
            Y    -0.0248    0.0135   -0.0090   -0.0270    0.0138    0.0023
            Z    -0.0120    0.0202    0.0109   -0.0262   -0.0104    0.0085
 AT.   8 CL X    -0.0145    0.0054    0.0056   -0.0107   -0.0059    0.0070
            Y    -0.0248    0.0135    0.0090   -0.0270   -0.0138    0.0023
            Z     0.0120   -0.0202    0.0109    0.0262   -0.0104   -0.0085
 AT.   9 CL X    -0.0083    0.0116   -0.0116   -0.0078   -0.0351   -0.0350
            Y    -0.0200   -0.0243    0.0282   -0.0083   -0.0192   -0.0245
            Z    -0.0114   -0.0196    0.0196    0.0010    0.0052   -0.0014
 AT.  10 CL X    -0.0083    0.0116    0.0116   -0.0078    0.0351   -0.0350
            Y    -0.0200   -0.0243   -0.0282   -0.0083    0.0192   -0.0245
            Z     0.0114    0.0196    0.0196   -0.0010    0.0052    0.0014
 AT.  11 CL X     0.0083   -0.0116   -0.0116   -0.0078    0.0351   -0.0350
            Y    -0.0200   -0.0243   -0.0282    0.0083   -0.0192    0.0245
            Z    -0.0114   -0.0196   -0.0196   -0.0010    0.0052    0.0014
 AT.  12 CL X     0.0083   -0.0116    0.0116   -0.0078   -0.0351   -0.0350
            Y    -0.0200   -0.0243    0.0282    0.0083    0.0192    0.0245
            Z     0.0114    0.0196   -0.0196    0.0010    0.0052   -0.0014

 FREQ(CM**-1)    320.55    322.24    327.21    332.88    339.21    344.48

 AT.   1 ZN X     0.0120    0.0087    0.0008   -0.0085   -0.0073   -0.0105
            Y    -0.0050   -0.0050   -0.0186    0.0023    0.0149    0.0114
            Z    -0.0138    0.0066   -0.0064   -0.0126   -0.0084   -0.0095
 AT.   2 ZN X    -0.0120    0.0087   -0.0008   -0.0085   -0.0073    0.0105
            Y     0.0050   -0.0050    0.0186    0.0023    0.0149   -0.0114
            Z    -0.0138   -0.0066   -0.0064    0.0126    0.0084   -0.0095
 AT.   3 ZN X     0.0120   -0.0087   -0.0008    0.0085   -0.0073   -0.0105
            Y     0.0050   -0.0050   -0.0186    0.0023   -0.0149   -0.0114
            Z     0.0138    0.0066   -0.0064   -0.0126    0.0084    0.0095
 AT.   4 ZN X    -0.0120   -0.0087    0.0008    0.0085   -0.0073    0.0105
            Y    -0.0050   -0.0050    0.0186    0.0023   -0.0149    0.0114
            Z     0.0138   -0.0066   -0.0064    0.0126   -0.0084    0.0095
 AT.   5 CL X     0.0162   -0.0129    0.0149   -0.0068    0.0127   -0.0020
            Y    -0.0275    0.0212   -0.0274    0.0083   -0.0239    0.0053
            Z     0.0274   -0.0398    0.0211    0.0088    0.0339    0.0032
 AT.   6 CL X    -0.0162   -0.0129   -0.0149   -0.0068    0.0127    0.0020
            Y     0.0275    0.0212    0.0274    0.0083   -0.0239   -0.0053
            Z     0.0274    0.0398    0.0211   -0.0088   -0.0339    0.0032
 AT.   7 CL X     0.0162    0.0129   -0.0149    0.0068    0.0127   -0.0020
            Y     0.0275    0.0212   -0.0274    0.0083    0.0239   -0.0053
            Z    -0.0274   -0.0398    0.0211    0.0088   -0.0339   -0.0032
 AT.   8 CL X    -0.0162    0.0129    0.0149    0.0068    0.0127    0.0020
            Y    -0.0275    0.0212    0.0274    0.0083    0.0239    0.0053
            Z    -0.0274    0.0398    0.0211   -0.0088    0.0339   -0.0032
 AT.   9 CL X    -0.0010   -0.0064   -0.0119   -0.0420    0.0007    0.0397
            Y     0.0146   -0.0120   -0.0166   -0.0126   -0.0045    0.0164
            Z     0.0065   -0.0049   -0.0094    0.0059   -0.0006   -0.0026
 AT.  10 CL X     0.0010   -0.0064    0.0119   -0.0420    0.0007   -0.0397
            Y    -0.0146   -0.0120    0.0166   -0.0126   -0.0045   -0.0164
            Z     0.0065    0.0049   -0.0094   -0.0059    0.0006   -0.0026
 AT.  11 CL X    -0.0010    0.0064    0.0119    0.0420    0.0007    0.0397
            Y    -0.0146   -0.0120   -0.0166   -0.0126    0.0045   -0.0164
            Z    -0.0065   -0.0049   -0.0094    0.0059    0.0006    0.0026
 AT.  12 CL X     0.0010    0.0064   -0.0119    0.0420    0.0007   -0.0397
            Y     0.0146   -0.0120    0.0166   -0.0126    0.0045    0.0164
            Z    -0.0065    0.0049   -0.0094   -0.0059   -0.0006    0.0026

 *******************************************************************************

 VIBRATIONAL TEMPERATURES (K) [MODE NUMBER;IRREP]

 TO MODES
    75.9 [   4;A1 ]    80.1 [   5;A2 ]    92.7 [   6;B2 ]   101.0 [   7;A2 ]
   121.7 [   8;A1 ]   127.8 [   9;A2 ]   134.4 [  10;B1 ]   134.6 [  11;B2 ]
   141.5 [  12;A1 ]   156.1 [  13;B2 ]   159.7 [  14;B1 ]   166.5 [  15;A1 ]
   170.2 [  16;A2 ]   171.6 [  17;B1 ]   191.0 [  18;B2 ]   192.6 [  19;A2 ]
   196.2 [  20;B1 ]   353.5 [  21;A1 ]   374.2 [  22;A2 ]   396.8 [  23;B2 ]
   426.8 [  24;A1 ]   434.7 [  25;B1 ]   441.4 [  26;B1 ]   451.1 [  27;A2 ]
   452.7 [  28;B2 ]   452.8 [  29;A1 ]   459.8 [  30;B2 ]   461.2 [  31;A2 ]
   463.6 [  32;B1 ]   470.8 [  33;A1 ]   478.9 [  34;B1 ]   488.0 [  35;B2 ]
   495.6 [  36;A2 ]

 *******************************************************************************

 HARMONIC VIBRATIONAL CONTRIBUTIONS TO THERMODYNAMIC FUNCTIONS AT GIVEN
 TEMPERATURE AND PRESSURE:

 (EL = ELECTRONIC ENERGY
  E0 = ZERO-POINT ENERGY
  ET = THERMAL CONTRIBUTION TO THE VIBRATIONAL ENERGY
  PV = PRESSURE * VOLUME
  TS = TEMPERATURE * ENTROPY)

                          AU/CELL             EV/CELL                 KJ/MOL
 EL            :  -10797.422045802929 -293812.791019955825   -28348627.58620943
 E0            :       0.015066635383       0.409983991967          39.55744562


 *******************************************************************************

 THERMODYNAMIC FUNCTIONS WITH VIBRATIONAL CONTRIBUTIONS

 AT (T =  298.15 K, P =   0.10132500E+00 MPA):

                          AU/CELL             EV/CELL                 KJ/MOL
 ET            :       0.019123274529       0.520370755077          50.20815020
 PV            :       0.000006911523       0.000188072089           0.01814620
 TS            :       0.039238503657       1.067733967042         103.02067683
 ET+PV-TS      :      -0.020108317605      -0.547175139877         -52.79438043
 EL+E0+ET+PV-TS:  -10797.427087485150 -293812.928211103776   -28348640.82314424

 OTHER THERMODYNAMIC FUNCTIONS:

                      mHARTREE/(CELL*K)     mEV/(CELL*K)              J/(MOL*K)
 ENTROPY       :       0.131606586137       3.581197273326         345.53304321
 HEAT CAPACITY :       0.094993698193       2.584909942120         249.40591946

 *******************************************************************************
 TTTTTTTTTTTTTTTTTTTTTTTTTTTTTT END         TELAPSE     1734.04 TCPU     1706.51
 EEEEEEEEEE TERMINATION  DATE 05 09 2023 TIME 17:20:10.4
