         256 PROCESSORS WORKING

         
 *******************************************************************************
 *                                                                             *
 *                               CRYSTAL23                                     *
 *                      public : 1.0.1 - October 2022                          *
 *                       HTTP://WWW.CRYSTAL.UNITO.IT                           *
 *                                                                             *
 *                              MAIN AUTHORS                                   *
 *                                                                             *
 *  R. DOVESI(1,11), V.R. SAUNDERS(2), C. ROETTI(1,11), R. ORLANDO(1,11),      *
 *  C.M. ZICOVICH-WILSON(1,3), F. PASCALE(4), B. CIVALLERI(1,11),              *
 *  K. DOLL(5), N.M. HARRISON(6), I.J. BUSH(7), Ph. D'ARCO(8),                 *
 *  M. LLUNELL(9), M. CAUSA'(10), Y. NOEL(8), L. MASCHIO(1,11), A. ERBA(1,11)  *
 *  M. RE'RAT(14), S. CASASSA(1,11), B.G. SEARLE(2), J.K. DESMARAIS(1)         *
 *                                                                             *
 *        CONTRIBUTIONS TO THE CODE HAVE ALSO BEEN GIVEN BY                    *
 *                                                                             *
 *  M. FERRABONE(1,11), M. DE LA PIERRE(1,11), M. FERRERO(1,11),               *
 *  J. BAIMA(1,11), E. ALBANESE(1,11), M.F. PEINTINGER(12), R. BAST(13),       *
 *  B. KIRTMAN(15), V. LACIVITA(1,11), R. DEMICHELIS(1,16)                     *
 *  G. BRANDEBURG(17), S. SALUSTRO(1,11), G. SANSONE(1,11)                     *
 *  M.T. RUGGIERO(18), L.E. DAGA(1), L. DONA'(1), A. COSSARD(1)                *
 *                                                                             *
 * (1) THEORETICAL CHEMISTRY GROUP - UNIVERSITA' DI TORINO - TORINO (ITALY)    *
 * (2) SCIENTIFIC COMPUTING DEPARTMENT - STFC DARESBURY (UK)                   *
 * (3) UNIVERSIDAD AUTONOMA DEL ESTADO DE MORELOS - CUERNAVACA (MEXICO)        *
 * (4) UNIVERSITE' DE LORRAINE - NANCY (FRANCE)                                *
 * (5) UNIVERSITAET STUTTGART- STUTTGART (GERMANY)                             *
 * (6) IMPERIAL COLLEGE - LONDON (UK)                                          *
 * (7) SCIENTIFIC COMPUTING DEPARTMENT - STFC RAL (UK)                         *
 * (8) UPMC - SORBONNE UNIVERSITES - PARIS (FRANCE)                            *
 * (9) UNIVERSIDAD DE BARCELONA - BARCELONA (SPAIN)                            *
 *(10) UNIVERSITA' DI NAPOLI "FEDERICO II" - NAPOLI (ITALY)                    *
 *(11) NIS - NANOSTRUCTURED INTERFACES AND SURFACES - TORINO (ITALY)           *
 *(12) MPI FUER CHEMISCHE ENERGIEKONVERSION - MUELHEIM AN DER RUHR (GERMANY)   *
 *(13) UNIVERSITY OF TROMSO - TROMSO (NORWAY)                                  *
 *(14) UNIVERSITE' DE PAU ET DES PAYS DE L'ADOUR - PAU (FRANCE)                *
 *(15) UNIVERSITY OF CALIFORNIA SANTA BARBARA - SANTA BARBARA (USA)            *
 *(16) CURTIN UNIVERSITY - PERTH (AUSTRALIA)                                   *
 *(17) UNIVERSITY COLLEGE LONDON - LONDON (UK)                                 *
 *(18) UNIVERSITY OF VERMONT - BURLINGTON (USA)                                *
 *                                                                             *
 *******************************************************************************
 EEEEEEEEEE STARTING  DATE 05 09 2023 TIME 18:12:49.8
 ICSD_CollCode77072.cif                                                          

 CRYSTAL CALCULATION
 (INPUT ACCORDING TO THE INTERNATIONAL TABLES FOR X-RAY CRYSTALLOGRAPHY)
 CRYSTAL FAMILY                       :  CUBIC       
 CRYSTAL CLASS  (GROTH - 1921)        :  CUBIC HEXAKISTETRAHEDRAL             

 SPACE GROUP (NONCENTROSYMMETRIC)     :  F -4 3 M        

 LATTICE PARAMETERS  (ANGSTROMS AND DEGREES) - CONVENTIONAL CELL
        A           B           C        ALPHA        BETA       GAMMA
     6.10600     6.10600     6.10600    90.00000    90.00000    90.00000


 NUMBER OF IRREDUCIBLE ATOMS IN THE CONVENTIONAL CELL:    2

 INPUT COORDINATES

 ATOM AT. N.              COORDINATES
   1  30     0.000000000000E+00  0.000000000000E+00  0.000000000000E+00
   2 252     7.500000000000E-01  7.500000000000E-01  2.500000000000E-01

 *******************************************************************************

 << INFORMATION >>: FROM NOW ON, ALL COORDINATES REFER TO THE PRIMITIVE CELL

 *******************************************************************************

 LATTICE PARAMETERS  (ANGSTROMS AND DEGREES) - PRIMITIVE CELL
       A          B          C        ALPHA      BETA     GAMMA        VOLUME
    4.31759    4.31759    4.31759    60.00000  60.00000  60.00000     56.912860

 COORDINATES OF THE EQUIVALENT ATOMS (FRACTIONAL UNITS)

 N. ATOM EQUIV AT. N.          X                  Y                  Z

   1   1   1   30 ZN    0.00000000000E+00  0.00000000000E+00  0.00000000000E+00

   2   2   1  252 TE    2.50000000000E-01  2.50000000000E-01  2.50000000000E-01

 NUMBER OF SYMMETRY OPERATORS         :   24
 *******************************************************************************
 * GEOMETRY EDITING - INPUT COORDINATES ARE GIVEN IN ANGSTROM         
 *******************************************************************************

 GEOMETRY NOW FULLY CONSISTENT WITH THE GROUP

 FRQFRQFRQFRQFRQFRQFRQFRQFRQFRQFRQFRQFRQFRQFRQFRQFRQFRQFRQFRQFRQFRQFRQFRQFRQFRQ

                       FREQUENCY CALCULATION

 OPTIMIZATION PERFORMED BEFORE FREQUENCIES CALCULATION
 *******************************************************************************
 INFORMATION **** NEW DEFAULT **** FINALRUN 4 FOR GEOMETRY OPTIMIZATIONS
 INFORMATION **** NEW DEFAULT **** OPTGEOM OPTIMIZES ATOMIC COORDINATES ONLY
 INFORMATION **** NEW DEFAULT **** TOL. ON ATOMIC DISP TO REDEFINE REF. GEOMETRY: 0.8 Angs
 INFORMATION **** NEW DEFAULT **** N POINTS TO REDEFINE REF. GEOMETRY: N OF OPT DEGS OF FREEDOM
 INFORMATION **** NEW DEFAULT **** TOL. ON ENERGY TO REDEFINE REF. GEOMETRY: 10**-3*(5*N. ATOMS)
 INFORMATION **** FULLOPTG **** FULL OPTIMIZATION (ATOMS AND CELL PARAMETERS)

 IMPORTANT INFORMATION:
 THE COORDINATE SYSTEM ADOPTED IN THE OPTIMIZATION IS NOT IN
 GENERAL HOMOGENEOUS UNITS. FOR THIS REASON THE GRADIENT AND 
 HESSIAN MATRIX IN TERMS OF THIS SYSTEM ARE GIVEN WITHOUT
 UNITS. FOR MORE DETAILS SEE THE MANUAL.

 *******************************************************************************
 COMBINED CELL/ATOM OPTIMIZATION CONTROL

 INITIAL TRUST RADIUS         0.50000 MAXIMUM TRUST RADIUS               0.50000
 MAXIMUM GRADIENT COMPONENT   0.00005 MAXIMUM DISPLACEMENT COMPONENT     0.00018
 R.M.S. OF GRADIENT COMPONENT 0.00003 R.M.S. OF DISPLACEMENT COMPONENTS  0.00012
 THRESHOLD ON ENERGY CHANGE 0.100E-06 EXTRAPOLATING POLYNOMIAL ORDER           2
 MAXIMUM ALLOWED NUMBER OF STEPS   -1 SORTING OF ENERGY POINTS:               NO
 ANALYTICAL  GRADIENT                 HESSIAN UPDATING                      BFGS
 STEP SIZE NUMERICAL GRADIENT 0.00100
 INITIAL HESSIAN MATRIX: SCHLEGEL MODEL 2
 *******************************************************************************

 INFORMATION **** INPFREQ **** IR INTENSITIES EVALUATED THROUGH CPHF APPROACH
 INFORMATION **** INPFREQ **** NEW DEFAULT - IMPOSING ECKART CONDITIONS TO THE HESSIAN

 GCALCO - MAX INDICES DIRECT LATTICE VECTOR    14    14    14
 NO.OF VECTORS CREATED 6999 STARS  105 RMAX    86.34748 BOHR

 GEOMETRY FOR WAVE FUNCTION - DIMENSIONALITY OF THE SYSTEM    3
 (NON PERIODIC DIRECTION: LATTICE PARAMETER FORMALLY SET TO 500)
 *******************************************************************************
 LATTICE PARAMETERS (ANGSTROMS AND DEGREES) - BOHR = 0.5291772083 ANGSTROM
 PRIMITIVE CELL - CENTRING CODE 5/0 VOLUME=    56.912860 - DENSITY  5.656 g/cm^3
         A              B              C           ALPHA      BETA       GAMMA 
     4.31759401     4.31759401     4.31759401    60.000000  60.000000  60.000000
 *******************************************************************************
 ATOMS IN THE ASYMMETRIC UNIT    2 - ATOMS IN THE UNIT CELL:    2
     ATOM                 X/A                 Y/B                 Z/C    
 *******************************************************************************
      1 T  30 ZN    0.000000000000E+00  0.000000000000E+00  0.000000000000E+00
      2 T 252 TE    2.500000000000E-01  2.500000000000E-01  2.500000000000E-01

 TRANSFORMATION MATRIX PRIMITIVE-CRYSTALLOGRAPHIC CELL
 -1.0000  1.0000  1.0000  1.0000 -1.0000  1.0000  1.0000  1.0000 -1.0000

 *******************************************************************************
 CRYSTALLOGRAPHIC CELL (VOLUME=        227.65143902)
         A              B              C           ALPHA      BETA       GAMMA 
     6.10600000     6.10600000     6.10600000    90.000000  90.000000  90.000000

 COORDINATES IN THE CRYSTALLOGRAPHIC CELL
     ATOM                 X/A                 Y/B                 Z/C    
 *******************************************************************************
      1 T  30 ZN    0.000000000000E+00  0.000000000000E+00  0.000000000000E+00
      2 T 252 TE    2.500000000000E-01 -2.500000000000E-01 -2.500000000000E-01

 T = ATOM BELONGING TO THE ASYMMETRIC UNIT

 ****   24 SYMMOPS - TRANSLATORS IN FRACTIONAL UNITS
 **** MATRICES AND TRANSLATORS IN THE CRYSTALLOGRAPHIC REFERENCE FRAME
   V INV                    ROTATION MATRICES                   TRANSLATORS
   1   1  1.00  0.00  0.00  0.00  1.00  0.00  0.00  0.00  1.00  0.00  0.00  0.00
   2   2  0.00  1.00 -0.00  1.00  0.00  0.00 -1.00 -1.00 -1.00  0.00  0.00  0.00
   3   3 -1.00 -1.00 -1.00 -0.00 -0.00  1.00  0.00  1.00 -0.00  0.00  0.00  0.00
   4   4 -0.00 -0.00  1.00 -1.00 -1.00 -1.00  1.00  0.00  0.00  0.00  0.00  0.00
   5   6  0.00  0.00  1.00  1.00 -0.00  0.00 -0.00  1.00 -0.00  0.00  0.00  0.00
   6   5  0.00  1.00  0.00 -0.00  0.00  1.00  1.00 -0.00 -0.00  0.00  0.00  0.00
   7   8  1.00 -0.00  0.00  0.00  0.00  1.00 -1.00 -1.00 -1.00  0.00  0.00  0.00
   8   7  1.00 -0.00 -0.00 -1.00 -1.00 -1.00  0.00  1.00  0.00  0.00  0.00  0.00
   9  10 -1.00 -1.00 -1.00 -0.00  1.00 -0.00  1.00 -0.00  0.00  0.00  0.00  0.00
  10   9 -0.00  0.00  1.00  0.00  1.00  0.00 -1.00 -1.00 -1.00  0.00  0.00  0.00
  11  12 -0.00  1.00 -0.00 -1.00 -1.00 -1.00  0.00  0.00  1.00  0.00  0.00  0.00
  12  11 -1.00 -1.00 -1.00  1.00 -0.00 -0.00 -0.00  0.00  1.00  0.00  0.00  0.00
  13  13  0.00  1.00  0.00  1.00  0.00 -0.00 -0.00 -0.00  1.00  0.00  0.00  0.00
  14  14  1.00  0.00 -0.00  0.00  1.00  0.00 -1.00 -1.00 -1.00  0.00  0.00  0.00
  15  16 -0.00 -0.00  1.00 -1.00 -1.00 -1.00  0.00  1.00  0.00  0.00  0.00  0.00
  16  15 -1.00 -1.00 -1.00 -0.00 -0.00  1.00  1.00  0.00 -0.00  0.00  0.00  0.00
  17  17  1.00  0.00  0.00  0.00 -0.00  1.00 -0.00  1.00 -0.00  0.00  0.00  0.00
  18  18  0.00  0.00  1.00 -0.00  1.00  0.00  1.00 -0.00 -0.00  0.00  0.00  0.00
  19  21  0.00 -0.00  1.00  1.00  0.00  0.00 -1.00 -1.00 -1.00  0.00  0.00  0.00
  20  22 -1.00 -1.00 -1.00  1.00 -0.00 -0.00 -0.00  1.00  0.00  0.00  0.00  0.00
  21  19 -0.00  1.00 -0.00 -1.00 -1.00 -1.00  1.00  0.00  0.00  0.00  0.00  0.00
  22  20 -0.00  1.00  0.00  0.00  0.00  1.00 -1.00 -1.00 -1.00  0.00  0.00  0.00
  23  23 -1.00 -1.00 -1.00 -0.00  1.00 -0.00  0.00 -0.00  1.00  0.00  0.00  0.00
  24  24  1.00 -0.00 -0.00 -1.00 -1.00 -1.00  0.00  0.00  1.00  0.00  0.00  0.00

 DIRECT LATTICE VECTORS CARTESIAN COMPONENTS (ANGSTROM)
          X                    Y                    Z
   0.000000000000E+00   0.305300000000E+01   0.305300000000E+01
   0.305300000000E+01   0.000000000000E+00   0.305300000000E+01
   0.305300000000E+01   0.305300000000E+01   0.000000000000E+00


 CARTESIAN COORDINATES - PRIMITIVE CELL
 *******************************************************************************
 *      ATOM          X(ANGSTROM)         Y(ANGSTROM)         Z(ANGSTROM)
 *******************************************************************************
    1    30 ZN    0.000000000000E+00  0.000000000000E+00  0.000000000000E+00
    2   252 TE    1.526500000000E+00 -1.526500000000E+00 -1.526500000000E+00

 *******************************************************************************
 *** PSEUDOPOTENTIAL INFORMATION ***
 *******************************************************************************

 ATOMIC NUMBER  52, NUCLEAR CHARGE 24.000, GIVEN IN INPUT       PSEUDOPOTENTIAL
   TYPE       EXPONENT      COEFF.    N      EXPONENT      COEFF.    N
  P0 TMS    16.8144730  281.0458430   0     8.7935260   61.6206560   0
  P1 TMS    14.8778010   67.4494640   0    14.2697310  134.9043040   0
             8.7244350   14.6895470   0     8.2915150   29.4150630   0
  P2 TMS    15.2050080   35.4320570   0    15.2258480   53.1356870   0
             6.0717690    9.0698020   0     5.8047600   13.1223040   0
  P3 TMS    15.2061680  -15.7454500   0    15.2017020  -20.7424480   0

 *******************************************************************************
 LOCAL ATOMIC FUNCTIONS BASIS SET
 *******************************************************************************
   ATOM   X(AU)   Y(AU)   Z(AU)  N. TYPE  EXPONENT  S COEF   P COEF   D/F/G COEF
 *******************************************************************************
   1 ZN   0.000   0.000   0.000
                                  1 S  
                                         4.059E+05 2.244E-04 0.000E+00 0.000E+00
                                         6.085E+04 1.740E-03 0.000E+00 0.000E+00
                                         1.385E+04 9.051E-03 0.000E+00 0.000E+00
                                         3.920E+03 3.682E-02 0.000E+00 0.000E+00
                                         1.276E+03 1.200E-01 0.000E+00 0.000E+00
                                         4.587E+02 2.858E-01 0.000E+00 0.000E+00
                                         1.783E+02 4.109E-01 0.000E+00 0.000E+00
                                         7.061E+01 2.182E-01 0.000E+00 0.000E+00
                                  2 S  
                                         4.439E+02-2.493E-02 0.000E+00 0.000E+00
                                         1.376E+02-1.182E-01 0.000E+00 0.000E+00
                                         2.227E+01 5.537E-01 0.000E+00 0.000E+00
                                         9.522E+00 5.263E-01 0.000E+00 0.000E+00
                                  3 S  
                                         1.487E+01-2.293E-01 0.000E+00 0.000E+00
                                         2.465E+00 7.114E-01 0.000E+00 0.000E+00
                                  4 S  
                                         1.011E+00 1.000E+00 0.000E+00 0.000E+00
                                  5 S  
                                         3.230E-01 1.000E+00 0.000E+00 0.000E+00
                                  6 S  
                                         1.517E-01 1.000E+00 0.000E+00 0.000E+00
                           7-     9 P  
                                         2.205E+03 0.000E+00 2.336E-03 0.000E+00
                                         5.224E+02 0.000E+00 1.903E-02 0.000E+00
                                         1.677E+02 0.000E+00 8.996E-02 0.000E+00
                                         6.267E+01 0.000E+00 2.611E-01 0.000E+00
                                         2.511E+01 0.000E+00 4.235E-01 0.000E+00
                                         1.023E+01 0.000E+00 2.462E-01 0.000E+00
                          10-    12 P  
                                         4.071E+01 0.000E+00-3.003E-02 0.000E+00
                                         5.625E+00 0.000E+00 5.558E-01 0.000E+00
                                         2.228E+00 0.000E+00 9.558E-01 0.000E+00
                          13-    15 P  
                                         1.160E+00 0.000E+00 1.000E+00 0.000E+00
                          16-    18 P  
                                         2.625E-01 0.000E+00 1.000E+00 0.000E+00
                          19-    23 D  
                                         8.855E+01 0.000E+00 0.000E+00 1.273E-02
                                         2.572E+01 0.000E+00 0.000E+00 7.939E-02
                                         9.128E+00 0.000E+00 0.000E+00 2.449E-01
                                         3.431E+00 0.000E+00 0.000E+00 4.039E-01
                          24-    28 D  
                                         1.186E+00 0.000E+00 0.000E+00 1.000E+00
                          29-    33 D  
                                         3.309E-01 0.000E+00 0.000E+00 1.000E+00
                          34-    40 F  
                                         2.614E+00 0.000E+00 0.000E+00 1.000E+00
   2 TE   2.885  -2.885  -2.885
                                 41 S  
                                         6.213E+03 1.739E-04 0.000E+00 0.000E+00
                                         9.209E+02 1.193E-03 0.000E+00 0.000E+00
                                         1.993E+02 3.626E-03 0.000E+00 0.000E+00
                                         2.477E+01-5.979E-02 0.000E+00 0.000E+00
                                         1.484E+01 9.594E-01 0.000E+00 0.000E+00
                                 42 S  
                                         1.228E+01 7.594E-01 0.000E+00 0.000E+00
                                         6.381E+00 3.533E-01 0.000E+00 0.000E+00
                                 43 S  
                                         1.690E+00 1.000E+00 0.000E+00 0.000E+00
                                 44 S  
                                         1.952E-01 1.000E+00 0.000E+00 0.000E+00
                          45-    47 P  
                                         2.043E+02 0.000E+00 4.061E-04 0.000E+00
                                         1.821E+01 0.000E+00 6.026E-02 0.000E+00
                                         9.921E+00 0.000E+00-2.749E-01 0.000E+00
                          48-    50 P  
                                         3.144E+00 0.000E+00 4.315E-01 0.000E+00
                                         1.722E+00 0.000E+00 5.540E-01 0.000E+00
                                         8.910E-01 0.000E+00 2.409E-01 0.000E+00
                          51-    53 P  
                                         5.060E-01 0.000E+00 1.000E+00 0.000E+00
                          54-    56 P  
                                         1.514E-01 0.000E+00 1.000E+00 0.000E+00
                          57-    61 D  
                                         1.215E+02 0.000E+00 0.000E+00 6.349E-04
                                         3.297E+01 0.000E+00 0.000E+00 6.181E-03
                                         1.925E+01 0.000E+00 0.000E+00-8.893E-03
                                         4.720E+00 0.000E+00 0.000E+00 2.016E-01
                                         2.343E+00 0.000E+00 0.000E+00 4.298E-01
                                         1.114E+00 0.000E+00 0.000E+00 3.825E-01
                          62-    66 D  
                                         1.152E+00 0.000E+00 0.000E+00 1.000E+00
                          67-    71 D  
                                         4.722E-01 0.000E+00 0.000E+00 1.000E+00
                          72-    76 D  
                                         1.563E-01 0.000E+00 0.000E+00 1.000E+00
 INFORMATION **** SET_MPP **** PCRYSTAL CALCULATION
 INFORMATION **** READM2 **** NEW DEFAULT: FOCK/KS MATRIX MIXING SET TO 30 %
 INFORMATION **** READM2 **** NEW DEFAULT: FULL DIRECT SCF MODE
 INFORMATION **** READM2 **** NEW DEFAULT: COULOMB BIPOLAR BUFFER SET TO 32 Mb
 INFORMATION **** READM2 **** NEW DEFAULT: EXCHANGE BIPOLAR BUFFER SET TO 32 Mb

 *******************************************************************************
 NEW DEFAULT: DFT INTEGRATION GRID INCREASED TO XLGRID
 NEW DEFAULT: DIIS ACCELERATOR ACTIVE
 USE KEYWORD NODIIS TO TURN IT OFF
 *******************************************************************************

 INFORMATION **** RDDFTP **** MAX N. OF POINTS ALLOWED IN A BATCH FOR NUMERICAL INTEGRATION         200
 INFORMATION **** TOLINTEG **** COULOMB AND EXCHANGE SERIES TOLERANCES MODIFIED
 INFORMATION **** TOLDEE **** SCF TOL ON TOTAL ENERGY SET TO          11
 INFORMATION **** EXCHSIZE **** EXCHANGE BIPOLAR BUFFER SIZE SET TO    12012489
 INFORMATION **** MAXCYCLE **** MAX NUMBER OF SCF CYCLES SET TO         150
 *******************************************************************************
 N. OF ATOMS PER CELL         2  COULOMB OVERLAP TOL         (T1) 10**   -7
 NUMBER OF SHELLS            26  COULOMB PENETRATION TOL     (T2) 10**   -7
 NUMBER OF AO                76  EXCHANGE OVERLAP TOL        (T3) 10**   -7
 N. OF ELECTRONS PER CELL    54  EXCHANGE PSEUDO OVP (F(G))  (T4) 10**   -9
 CORE ELECTRONS PER CELL     18  EXCHANGE PSEUDO OVP (P(G))  (T5) 10**  -30
 N. OF SYMMETRY OPERATORS    24  POLE ORDER IN MONO ZONE                  4
 *******************************************************************************
 TYPE OF CALCULATION :  RESTRICTED CLOSED SHELL
 KOHN-SHAM HAMILTONIAN

 (EXCHANGE)[CORRELATION] FUNCTIONAL:(PERDEW-BURKE-ERNZERHOF)[PERDEW-BURKE-ERNZERHOF]


 HYBRID EXCHANGE - PERCENTAGE OF FOCK EXCHANGE    25.0000
 CORE  PSEUDO POTENTIAL         TOL. ON PSEUDO              (TP) 10**- 6

 CAPPA:IS1  8;IS2  8;IS3  8; K PTS MONK NET  29; SYMMOPS:K SPACE  48;G SPACE  24

 *******************************************************************************
 MAX NUMBER OF SCF CYCLES     150  CONVERGENCE ON DELTAP        10**-21
 WEIGHT OF F(I) IN F(I+1)      30% CONVERGENCE ON ENERGY        10**-11
 SHRINK. FACT.(MONKH.)    8  8  8  NUMBER OF K POINTS IN THE IBZ     29
 SHRINKING FACTOR(GILAT NET)    8  NUMBER OF K POINTS(GILAT NET)     29
 *******************************************************************************
 *** K POINTS COORDINATES (OBLIQUE COORDINATES IN UNITS OF IS =  8)
   1-R(  0  0  0)   2-C(  1  0  0)   3-C(  2  0  0)   4-C(  3  0  0)
   5-R(  4  0  0)   6-C(  1  1  0)   7-C(  2  1  0)   8-C(  3  1  0)
   9-C(  4  1  0)  10-C(  5  1  0)  11-C(  6  1  0)  12-C(  7  1  0)
  13-C(  2  2  0)  14-C(  3  2  0)  15-C(  4  2  0)  16-C(  5  2  0)
  17-C(  6  2  0)  18-C(  3  3  0)  19-C(  4  3  0)  20-C(  5  3  0)
  21-R(  4  4  0)  22-C(  3  2  1)  23-C(  4  2  1)  24-C(  5  2  1)
  25-C(  4  3  1)  26-C(  5  3  1)  27-C(  6  3  1)  28-C(  5  4  1)
  29-C(  6  4  2)

 DIRECT LATTICE VECTORS COMPON. (A.U.)     RECIP. LATTICE VECTORS COMPON. (A.U.) 
        X            Y            Z              X            Y            Z
    0.0000000    5.7693339    5.7693339     -0.5445330    0.5445330    0.5445330
    5.7693339    0.0000000    5.7693339      0.5445330   -0.5445330    0.5445330
    5.7693339    5.7693339    0.0000000      0.5445330    0.5445330   -0.5445330

 DISK SPACE FOR EIGENVECTORS (FTN 10)      317680 REALS

 SYMMETRY ADAPTION OF THE BLOCH FUNCTIONS ENABLED
 TTTTTTTTTTTTTTTTTTTTTTTTTTTTTT gordsh1     TELAPSE        3.61 TCPU        2.21

 MATRIX SIZE: P(G)  305106, F(G)   24246, P(G) IRR   15342, F(G) IRR    4501
 MAX G-VECTOR INDEX FOR 1- AND 2-ELECTRON INTEGRALS 435

 TTTTTTTTTTTTTTTTTTTTTTTTTTTTTT INPUT       TELAPSE        3.61 TCPU        2.21

 NEIGHBORS OF THE NON-EQUIVALENT ATOMS

 N = NUMBER OF NEIGHBORS AT DISTANCE R
    ATOM  N     R/ANG      R/AU   NEIGHBORS (ATOM LABELS AND CELL INDICES)
   1 ZN   4     2.6440     4.9964    2 TE   0 0 0    2 TE   1 0 0    2 TE   1 0-1
                                     2 TE   1-1 0
   1 ZN  12     4.3176     8.1591    1 ZN  -1 0 0    1 ZN   1 0 0    1 ZN  -1 0 1
                                     1 ZN   1 0-1    1 ZN  -1 1 0    1 ZN   1-1 0
                                     1 ZN   0-1 0    1 ZN   0 1 0    1 ZN   0-1 1
                                     1 ZN   0 1-1    1 ZN   0 0-1    1 ZN   0 0 1
   1 ZN  12     5.0628     9.5674    2 TE   0 1 0    2 TE   0-1 0    2 TE   0 1-1
                                     2 TE   0-1 1    2 TE   0 0 1    2 TE   0 0-1
                                     2 TE   1 1-1    2 TE   1-1 1    2 TE   1-1-1
                                     2 TE   2 0-1    2 TE   2-1 0    2 TE   2-1-1
   1 ZN   6     6.1060    11.5387    1 ZN  -1-1 1    1 ZN   1 1-1    1 ZN  -1 1-1
                                     1 ZN   1-1 1    1 ZN  -1 1 1    1 ZN   1-1-1
   1 ZN  12     6.6539    12.5740    2 TE  -1 0 0    2 TE  -1 0 1    2 TE  -1 1 0
                                     2 TE   1 1 0    2 TE   1 1-2    2 TE   1 0 1
                                     2 TE   1 0-2    2 TE   1-2 1    2 TE   1-2 0
                                     2 TE   2 0 0    2 TE   2 0-2    2 TE   2-2 0
   1 ZN  24     7.4783    14.1319    1 ZN  -2 0 1    1 ZN   2 0-1    1 ZN  -2 1 0
                                     1 ZN   2-1 0    1 ZN  -2 1 1    1 ZN   2-1-1
                                     1 ZN  -1-1 0    1 ZN   1 1 0    1 ZN  -1-1 2
                                     1 ZN   1 1-2    1 ZN  -1 0-1    1 ZN   1 0 1
                                     1 ZN  -1 0 2    1 ZN   1 0-2    1 ZN  -1 2-1
                                     1 ZN   1-2 1    1 ZN  -1 2 0    1 ZN   1-2 0
                                     1 ZN   0-2 1    1 ZN   0 2-1    1 ZN   0-1-1
                                     1 ZN   0 1 1    1 ZN   0-1 2    1 ZN   0 1-2

   2 TE   4     2.6440     4.9964    1 ZN   0 0 0    1 ZN  -1 0 0    1 ZN  -1 0 1
                                     1 ZN  -1 1 0
   2 TE  12     4.3176     8.1591    2 TE  -1 0 0    2 TE   1 0 0    2 TE  -1 0 1
                                     2 TE   1 0-1    2 TE  -1 1 0    2 TE   1-1 0
                                     2 TE   0-1 0    2 TE   0 1 0    2 TE   0-1 1
                                     2 TE   0 1-1    2 TE   0 0-1    2 TE   0 0 1
   2 TE  12     5.0628     9.5674    1 ZN   0-1 0    1 ZN   0 1 0    1 ZN   0-1 1
                                     1 ZN   0 1-1    1 ZN   0 0-1    1 ZN   0 0 1
                                     1 ZN  -1-1 1    1 ZN  -1 1-1    1 ZN  -1 1 1
                                     1 ZN  -2 0 1    1 ZN  -2 1 0    1 ZN  -2 1 1
   2 TE   6     6.1060    11.5387    2 TE  -1-1 1    2 TE   1 1-1    2 TE  -1 1-1
                                     2 TE   1-1 1    2 TE  -1 1 1    2 TE   1-1-1
   2 TE  12     6.6539    12.5740    1 ZN   1 0 0    1 ZN   1 0-1    1 ZN   1-1 0
                                     1 ZN  -1-1 0    1 ZN  -1-1 2    1 ZN  -1 0-1
                                     1 ZN  -1 0 2    1 ZN  -1 2-1    1 ZN  -1 2 0
                                     1 ZN  -2 0 0    1 ZN  -2 0 2    1 ZN  -2 2 0
   2 TE  24     7.4783    14.1319    2 TE  -2 0 1    2 TE   2 0-1    2 TE  -2 1 0
                                     2 TE   2-1 0    2 TE  -2 1 1    2 TE   2-1-1
                                     2 TE  -1-1 0    2 TE   1 1 0    2 TE  -1-1 2
                                     2 TE   1 1-2    2 TE  -1 0-1    2 TE   1 0 1
                                     2 TE  -1 0 2    2 TE   1 0-2    2 TE  -1 2-1
                                     2 TE   1-2 1    2 TE  -1 2 0    2 TE   1-2 0
                                     2 TE   0-2 1    2 TE   0 2-1    2 TE   0-1-1
                                     2 TE   0 1 1    2 TE   0-1 2    2 TE   0 1-2


 SYMMETRY ALLOWED ELASTIC DISTORTION 1
  0.5773503  0.0000000  0.0000000
  0.0000000  0.5773503  0.0000000
  0.0000000  0.0000000  0.5773503

 THERE ARE NO SYMMETRY ALLOWED DIRECTIONS
 WARNING **** INT_SCREEN **** NO DEGREES OF FREEDOM TO OPTIMIZE.
 CONTINUING WITH FREQUENCIES CALCULATION

 WARNING **** INT_SCREEN **** CELL PARAMETERS OPTIMIZATION ONLY
 TTTTTTTTTTTTTTTTTTTTTTTTTTTTTT SYMM        TELAPSE        3.63 TCPU        2.23
 TTTTTTTTTTTTTTTTTTTTTTTTTTTTTT INT_SCREEN  TELAPSE        3.64 TCPU        2.23

 *******************************************************************************
 *                             OPTIMIZATION STARTS                             *
 *******************************************************************************
 RECLASIFICATION OF INDICES FOR INTEGRAL CALC ACCORDING TO DIFFERENT CRITERIA:
           FIXDELTE                  FIXDELTX              FIXDELTN
          0.10000000E-01           0.80000000                 10
 *******************************************************************************

 *******************************************************************************
 CELL OPTIMIZATION - POINT    1

 DFT PARAMETERS

     ATOM       ELECTRONS   NET CHARGE   R(ANGSTROM)
   1  30  ZN     30.0000      0.0000     1.37000000
   2 252  TE     24.0000      0.0000     1.37000000

 SIZE OF GRID=       5692
 TTTTTTTTTTTTTTTTTTTTTTTTTTTTTT MAKE_GRID2  TELAPSE        3.90 TCPU        2.50
 BECKE WEIGHT FUNCTION
 RADSAFE =     2.00
 TOLERANCES - DENSITY:10**- 6; POTENTIAL:10**- 9; GRID WGT:10**-14

 RADIAL INTEGRATION  - INTERVALS (POINTS,UPPER LIMIT):            1( 99,  4.0*R)

 ANGULAR INTEGRATION - INTERVALS (ACCURACY LEVEL [N. POINTS] UPPER LIMIT):
  1(  6[ 146]   0.2)  2( 11[ 302]   0.5)  3( 14[ 590]   0.9)  4( 18[1454]   3.5)
  5( 14[ 590]9999.0)
 TTTTTTTTTTTTTTTTTTTTTTTTTTTTTT INT_CALC    TELAPSE        3.93 TCPU        2.53

 *******************************************************************************
 ICSD_CollCode77072.cif                                                          
 CRYSTAL - SCF - TYPE OF CALCULATION :  RESTRICTED CLOSED SHELL
 *******************************************************************************

 CAPPA:IS1  8;IS2  8;IS3  8; K PTS MONK NET  29; SYMMOPS:K SPACE  48;G SPACE  24

 TTTTTTTTTTTTTTTTTTTTTTTTTTTTTT SDIK        TELAPSE        4.00 TCPU        2.60

 AAAAAAAAAAAAAAAAAAAAAAAAAAAAAAAAAAAAAAAAAAAAAAAAAAAAAAAAAAAAAAAAAAAAAAAAAAAAAAA
         ATOMIC WAVEFUNCTION(S)


 NUCLEAR CHARGE 30.0  SYMMETRY SPECIES            S    P    D
 N. ELECTRONS   30.0  NUMBER OF PRIMITIVE GTOS   17   11    6
                      NUMBER OF CONTRACTED GTOS   6    4    3
                      NUMBER OF CLOSED SHELLS     4    2    1
                      OPEN SHELL OCCUPATION       0    0    0

  ZNUC  SCFIT    TOTAL HF ENERGY   KINETIC ENERGY   VIRIAL THEOREM             ACCURACY
  30.0    18    -1.777712574E+03  1.776653869E+03 -2.000595898E+00  2.8E-06

 NUCLEAR CHARGE 24.0  SYMMETRY SPECIES            S    P    D
 N. ELECTRONS   24.0  NUMBER OF PRIMITIVE GTOS    9    8    9
                      NUMBER OF CONTRACTED GTOS   4    4    4
                      NUMBER OF CLOSED SHELLS     2    1    1
                      OPEN SHELL OCCUPATION       0    4    0

  ZNUC  SCFIT    TOTAL HF ENERGY   KINETIC ENERGY   VIRIAL THEOREM             ACCURACY
  24.0    12    -2.669357508E+02  1.029568519E+02 -3.592695347E+00  4.0E-06

 AAAAAAAAAAAAAAAAAAAAAAAAAAAAAAAAAAAAAAAAAAAAAAAAAAAAAAAAAAAAAAAAAAAAAAAAAAAAAAA

 TTTTTTTTTTTTTTTTTTTTTTTTTTTTTT MOQGAD      TELAPSE        4.05 TCPU        2.64
 TTTTTTTTTTTTTTTTTTTTTTTTTTTTTT SHELLXN     TELAPSE        4.58 TCPU        3.17
 TTTTTTTTTTTTTTTTTTTTTTTTTTTTTT MONMO3      TELAPSE        4.67 TCPU        3.26
 NUMERICALLY INTEGRATED DENSITY     54.0000121425
 TTTTTTTTTTTTTTTTTTTTTTTTTTTTTT NUMDFT      TELAPSE        4.72 TCPU        3.31
 CYC   0 ETOT(AU) -2.047381888305E+03 DETOT -2.05E+03 tst  0.00E+00 PX  1.00E+00
 TTTTTTTTTTTTTTTTTTTTTTTTTTTTTT DIIS        TELAPSE        4.73 TCPU        3.31
 TTTTTTTTTTTTTTTTTTTTTTTTTTTTTT FDIK        TELAPSE        4.73 TCPU        3.32
 INSULATING STATE
 TOP OF VALENCE BANDS -    BAND     27; K    1; EIG -1.5889884E-01 AU
 BOTTOM OF VIRTUAL BANDS - BAND     28; K    1; EIG -6.3307383E-02 AU
 DIRECT ENERGY BAND GAP:   2.6012 eV
 TTTTTTTTTTTTTTTTTTTTTTTTTTTTTT PDIG        TELAPSE        4.74 TCPU        3.33
 TTTTTTTTTTTTTTTTTTTTTTTTTTTTTT MOQGAD      TELAPSE        4.74 TCPU        3.33
 TTTTTTTTTTTTTTTTTTTTTTTTTTTTTT SHELLXN     TELAPSE        5.29 TCPU        3.87
 TTTTTTTTTTTTTTTTTTTTTTTTTTTTTT MONMO3      TELAPSE        5.38 TCPU        3.96
 NUMERICALLY INTEGRATED DENSITY     54.0000169200
 TTTTTTTTTTTTTTTTTTTTTTTTTTTTTT NUMDFT      TELAPSE        5.43 TCPU        4.01
 CYC   1 ETOT(AU) -2.047201942328E+03 DETOT  1.80E-01 tst  0.00E+00 PX  1.00E+00
 TTTTTTTTTTTTTTTTTTTTTTTTTTTTTT DIIS        TELAPSE        5.43 TCPU        4.01
 DIIS TEST: 0.48333E+00 AT SCF   CYCLE   1 - MIX   30 %
 TTTTTTTTTTTTTTTTTTTTTTTTTTTTTT FDIK        TELAPSE        5.43 TCPU        4.01
 INSULATING STATE
 TOP OF VALENCE BANDS -    BAND     27; K    1; EIG -1.9373069E-01 AU
 BOTTOM OF VIRTUAL BANDS - BAND     28; K    1; EIG -8.7293569E-02 AU
 DIRECT ENERGY BAND GAP:   2.8963 eV
 TTTTTTTTTTTTTTTTTTTTTTTTTTTTTT PDIG        TELAPSE        5.45 TCPU        4.02
 TTTTTTTTTTTTTTTTTTTTTTTTTTTTTT MOQGAD      TELAPSE        5.45 TCPU        4.03
 TTTTTTTTTTTTTTTTTTTTTTTTTTTTTT SHELLXN     TELAPSE        5.99 TCPU        4.56
 TTTTTTTTTTTTTTTTTTTTTTTTTTTTTT MONMO3      TELAPSE        6.08 TCPU        4.65
 NUMERICALLY INTEGRATED DENSITY     54.0000162646
 TTTTTTTTTTTTTTTTTTTTTTTTTTTTTT NUMDFT      TELAPSE        6.13 TCPU        4.70
 CYC   2 ETOT(AU) -2.047201396389E+03 DETOT  5.46E-04 tst  2.42E-03 PX  7.16E-02
 TTTTTTTTTTTTTTTTTTTTTTTTTTTTTT DIIS        TELAPSE        6.13 TCPU        4.71
 DIIS TEST: 0.62380E+00 AT SCF   CYCLE   2 - DIIS ACTIVE - HISTORY:     2 CYCLES
 TTTTTTTTTTTTTTTTTTTTTTTTTTTTTT FDIK        TELAPSE        6.22 TCPU        4.79
 INSULATING STATE
 TOP OF VALENCE BANDS -    BAND     27; K    1; EIG -2.0375312E-01 AU
 BOTTOM OF VIRTUAL BANDS - BAND     28; K    1; EIG -8.1676206E-02 AU
 DIRECT ENERGY BAND GAP:   3.3219 eV
 TTTTTTTTTTTTTTTTTTTTTTTTTTTTTT PDIG        TELAPSE        6.24 TCPU        4.81
 TTTTTTTTTTTTTTTTTTTTTTTTTTTTTT MOQGAD      TELAPSE        6.24 TCPU        4.81
 TTTTTTTTTTTTTTTTTTTTTTTTTTTTTT SHELLXN     TELAPSE        6.78 TCPU        5.34
 TTTTTTTTTTTTTTTTTTTTTTTTTTTTTT MONMO3      TELAPSE        6.87 TCPU        5.44
 NUMERICALLY INTEGRATED DENSITY     54.0000163705
 TTTTTTTTTTTTTTTTTTTTTTTTTTTTTT NUMDFT      TELAPSE        6.92 TCPU        5.48
 CYC   3 ETOT(AU) -2.047232772301E+03 DETOT -3.14E-02 tst  5.34E-04 PX  4.64E-02
 TTTTTTTTTTTTTTTTTTTTTTTTTTTTTT DIIS        TELAPSE        6.92 TCPU        5.49
 DIIS TEST: 0.96649E-03 AT SCF   CYCLE   3 - DIIS ACTIVE - HISTORY:     3 CYCLES
 TTTTTTTTTTTTTTTTTTTTTTTTTTTTTT FDIK        TELAPSE        6.93 TCPU        5.49
 INSULATING STATE
 TOP OF VALENCE BANDS -    BAND     27; K    1; EIG -2.0662112E-01 AU
 BOTTOM OF VIRTUAL BANDS - BAND     28; K    1; EIG -7.8679810E-02 AU
 DIRECT ENERGY BAND GAP:   3.4815 eV
 TTTTTTTTTTTTTTTTTTTTTTTTTTTTTT PDIG        TELAPSE        6.94 TCPU        5.50
 TTTTTTTTTTTTTTTTTTTTTTTTTTTTTT MOQGAD      TELAPSE        6.94 TCPU        5.50
 TTTTTTTTTTTTTTTTTTTTTTTTTTTTTT SHELLXN     TELAPSE        7.48 TCPU        6.04
 TTTTTTTTTTTTTTTTTTTTTTTTTTTTTT MONMO3      TELAPSE        7.57 TCPU        6.13
 NUMERICALLY INTEGRATED DENSITY     54.0000164014
 TTTTTTTTTTTTTTTTTTTTTTTTTTTTTT NUMDFT      TELAPSE        7.62 TCPU        6.18
 CYC   4 ETOT(AU) -2.047233000092E+03 DETOT -2.28E-04 tst  3.98E-05 PX  2.29E-02
 TTTTTTTTTTTTTTTTTTTTTTTTTTTTTT DIIS        TELAPSE        7.63 TCPU        6.18
 DIIS TEST: 0.22526E-03 AT SCF   CYCLE   4 - DIIS ACTIVE - HISTORY:     4 CYCLES
 TTTTTTTTTTTTTTTTTTTTTTTTTTTTTT FDIK        TELAPSE        7.63 TCPU        6.19
 INSULATING STATE
 TOP OF VALENCE BANDS -    BAND     27; K    1; EIG -2.0609056E-01 AU
 BOTTOM OF VIRTUAL BANDS - BAND     28; K    1; EIG -7.8144079E-02 AU
 DIRECT ENERGY BAND GAP:   3.4816 eV
 TTTTTTTTTTTTTTTTTTTTTTTTTTTTTT PDIG        TELAPSE        7.65 TCPU        6.20
 TTTTTTTTTTTTTTTTTTTTTTTTTTTTTT MOQGAD      TELAPSE        7.65 TCPU        6.20
 TTTTTTTTTTTTTTTTTTTTTTTTTTTTTT SHELLXN     TELAPSE        8.19 TCPU        6.74
 TTTTTTTTTTTTTTTTTTTTTTTTTTTTTT MONMO3      TELAPSE        8.28 TCPU        6.83
 NUMERICALLY INTEGRATED DENSITY     54.0000164193
 TTTTTTTTTTTTTTTTTTTTTTTTTTTTTT NUMDFT      TELAPSE        8.33 TCPU        6.88
 CYC   5 ETOT(AU) -2.047233024178E+03 DETOT -2.41E-05 tst  7.66E-07 PX  3.21E-03
 TTTTTTTTTTTTTTTTTTTTTTTTTTTTTT DIIS        TELAPSE        8.33 TCPU        6.88
 DIIS TEST: 0.15101E-04 AT SCF   CYCLE   5 - DIIS ACTIVE - HISTORY:     5 CYCLES
 TTTTTTTTTTTTTTTTTTTTTTTTTTTTTT FDIK        TELAPSE        8.34 TCPU        6.88
 INSULATING STATE
 TOP OF VALENCE BANDS -    BAND     27; K    1; EIG -2.0629607E-01 AU
 BOTTOM OF VIRTUAL BANDS - BAND     28; K    1; EIG -7.8150043E-02 AU
 DIRECT ENERGY BAND GAP:   3.4870 eV
 TTTTTTTTTTTTTTTTTTTTTTTTTTTTTT PDIG        TELAPSE        8.35 TCPU        6.89
 TTTTTTTTTTTTTTTTTTTTTTTTTTTTTT MOQGAD      TELAPSE        8.35 TCPU        6.89
 TTTTTTTTTTTTTTTTTTTTTTTTTTTTTT SHELLXN     TELAPSE        8.89 TCPU        7.43
 TTTTTTTTTTTTTTTTTTTTTTTTTTTTTT MONMO3      TELAPSE        8.98 TCPU        7.52
 NUMERICALLY INTEGRATED DENSITY     54.0000164147
 TTTTTTTTTTTTTTTTTTTTTTTTTTTTTT NUMDFT      TELAPSE        9.03 TCPU        7.57
 CYC   6 ETOT(AU) -2.047233025370E+03 DETOT -1.19E-06 tst  7.58E-08 PX  6.33E-04
 TTTTTTTTTTTTTTTTTTTTTTTTTTTTTT DIIS        TELAPSE        9.03 TCPU        7.57
 DIIS TEST: 0.23907E-07 AT SCF   CYCLE   6 - DIIS ACTIVE - HISTORY:     6 CYCLES
 TTTTTTTTTTTTTTTTTTTTTTTTTTTTTT FDIK        TELAPSE        9.04 TCPU        7.58
 INSULATING STATE
 TOP OF VALENCE BANDS -    BAND     27; K    1; EIG -2.0633825E-01 AU
 BOTTOM OF VIRTUAL BANDS - BAND     28; K    1; EIG -7.8178489E-02 AU
 DIRECT ENERGY BAND GAP:   3.4874 eV
 TTTTTTTTTTTTTTTTTTTTTTTTTTTTTT PDIG        TELAPSE        9.05 TCPU        7.59
 TTTTTTTTTTTTTTTTTTTTTTTTTTTTTT MOQGAD      TELAPSE        9.05 TCPU        7.59
 TTTTTTTTTTTTTTTTTTTTTTTTTTTTTT SHELLXN     TELAPSE        9.59 TCPU        8.12
 TTTTTTTTTTTTTTTTTTTTTTTTTTTTTT MONMO3      TELAPSE        9.68 TCPU        8.21
 NUMERICALLY INTEGRATED DENSITY     54.0000164137
 TTTTTTTTTTTTTTTTTTTTTTTTTTTTTT NUMDFT      TELAPSE        9.73 TCPU        8.26
 CYC   7 ETOT(AU) -2.047233025364E+03 DETOT  5.59E-09 tst  7.48E-10 PX  6.30E-05
 TTTTTTTTTTTTTTTTTTTTTTTTTTTTTT DIIS        TELAPSE        9.73 TCPU        8.26
 DIIS TEST: 0.11614E-08 AT SCF   CYCLE   7 - DIIS ACTIVE - HISTORY:     7 CYCLES
 TTTTTTTTTTTTTTTTTTTTTTTTTTTTTT FDIK        TELAPSE        9.74 TCPU        8.27
 INSULATING STATE
 TOP OF VALENCE BANDS -    BAND     27; K    1; EIG -2.0633431E-01 AU
 BOTTOM OF VIRTUAL BANDS - BAND     28; K    1; EIG -7.8175915E-02 AU
 DIRECT ENERGY BAND GAP:   3.4874 eV
 TTTTTTTTTTTTTTTTTTTTTTTTTTTTTT PDIG        TELAPSE        9.75 TCPU        8.28
 TTTTTTTTTTTTTTTTTTTTTTTTTTTTTT MOQGAD      TELAPSE        9.75 TCPU        8.28
 TTTTTTTTTTTTTTTTTTTTTTTTTTTTTT SHELLXN     TELAPSE       10.29 TCPU        8.82
 TTTTTTTTTTTTTTTTTTTTTTTTTTTTTT MONMO3      TELAPSE       10.38 TCPU        8.91
 NUMERICALLY INTEGRATED DENSITY     54.0000164137
 TTTTTTTTTTTTTTTTTTTTTTTTTTTTTT NUMDFT      TELAPSE       10.43 TCPU        8.96
 CYC   8 ETOT(AU) -2.047233025361E+03 DETOT  2.97E-09 tst  2.68E-12 PX  1.03E-05
 TTTTTTTTTTTTTTTTTTTTTTTTTTTTTT DIIS        TELAPSE       10.43 TCPU        8.96
 DIIS TEST: 0.36144E-11 AT SCF   CYCLE   8 - DIIS ACTIVE - HISTORY:     8 CYCLES
 TTTTTTTTTTTTTTTTTTTTTTTTTTTTTT FDIK        TELAPSE       10.44 TCPU        8.96
 INSULATING STATE
 TOP OF VALENCE BANDS -    BAND     27; K    1; EIG -2.0633414E-01 AU
 BOTTOM OF VIRTUAL BANDS - BAND     28; K    1; EIG -7.8176033E-02 AU
 DIRECT ENERGY BAND GAP:   3.4874 eV
 TTTTTTTTTTTTTTTTTTTTTTTTTTTTTT PDIG        TELAPSE       10.45 TCPU        8.98
 TTTTTTTTTTTTTTTTTTTTTTTTTTTTTT MOQGAD      TELAPSE       10.45 TCPU        8.98
 TTTTTTTTTTTTTTTTTTTTTTTTTTTTTT SHELLXN     TELAPSE       10.99 TCPU        9.51
 TTTTTTTTTTTTTTTTTTTTTTTTTTTTTT MONMO3      TELAPSE       11.08 TCPU        9.60
 NUMERICALLY INTEGRATED DENSITY     54.0000164137
 TTTTTTTTTTTTTTTTTTTTTTTTTTTTTT NUMDFT      TELAPSE       11.13 TCPU        9.65
 CYC   9 ETOT(AU) -2.047233025361E+03 DETOT -1.27E-10 tst  8.03E-14 PX  9.60E-07
 TTTTTTTTTTTTTTTTTTTTTTTTTTTTTT DIIS        TELAPSE       11.20 TCPU        9.72
 DIIS TEST: 0.29790E-14 AT SCF   CYCLE   9 - DIIS ACTIVE - HISTORY:     9 CYCLES
 TTTTTTTTTTTTTTTTTTTTTTTTTTTTTT FDIK        TELAPSE       11.20 TCPU        9.72
 INSULATING STATE
 TOP OF VALENCE BANDS -    BAND     27; K    1; EIG -2.0633414E-01 AU
 BOTTOM OF VIRTUAL BANDS - BAND     28; K    1; EIG -7.8176032E-02 AU
 DIRECT ENERGY BAND GAP:   3.4874 eV
 TTTTTTTTTTTTTTTTTTTTTTTTTTTTTT PDIG        TELAPSE       11.22 TCPU        9.74
 TTTTTTTTTTTTTTTTTTTTTTTTTTTTTT MOQGAD      TELAPSE       11.22 TCPU        9.74
 TTTTTTTTTTTTTTTTTTTTTTTTTTTTTT SHELLXN     TELAPSE       11.76 TCPU       10.27
 TTTTTTTTTTTTTTTTTTTTTTTTTTTTTT MONMO3      TELAPSE       11.85 TCPU       10.36
 NUMERICALLY INTEGRATED DENSITY     54.0000164137
 TTTTTTTTTTTTTTTTTTTTTTTTTTTTTT NUMDFT      TELAPSE       11.90 TCPU       10.41
 CYC  10 ETOT(AU) -2.047233025361E+03 DETOT  8.87E-12 tst  7.03E-17 PX  2.14E-08
 TTTTTTTTTTTTTTTTTTTTTTTTTTTTTT DIIS        TELAPSE       11.90 TCPU       10.42
 DIIS TEST: 0.65190E-16 AT SCF   CYCLE  10 - DIIS ACTIVE - HISTORY:    10 CYCLES
 TTTTTTTTTTTTTTTTTTTTTTTTTTTTTT FDIK        TELAPSE       11.91 TCPU       10.42
 INSULATING STATE
 TOP OF VALENCE BANDS -    BAND     27; K    1; EIG -2.0633414E-01 AU
 BOTTOM OF VIRTUAL BANDS - BAND     28; K    1; EIG -7.8176031E-02 AU
 DIRECT ENERGY BAND GAP:   3.4874 eV
 TTTTTTTTTTTTTTTTTTTTTTTTTTTTTT PDIG        TELAPSE       11.92 TCPU       10.43
 TTTTTTTTTTTTTTTTTTTTTTTTTTTTTT MOQGAD      TELAPSE       11.92 TCPU       10.43
 TTTTTTTTTTTTTTTTTTTTTTTTTTTTTT SHELLXN     TELAPSE       12.46 TCPU       10.97
 ::: PSEUDO TOTAL   ENERGY                        -1.9777393445392E+03
 ::: VIRIAL COEFFICIENT                            9.7426710679759E-01
 TTTTTTTTTTTTTTTTTTTTTTTTTTTTTT MONMO3      TELAPSE       12.55 TCPU       11.06
 NUMERICALLY INTEGRATED DENSITY     54.0000164137
 EXCHANGE ENERGY: -0.669333272631E+02  CORRELATION ENERGY: -0.256035355917E+01
 TTTTTTTTTTTTTTTTTTTTTTTTTTTTTT NUMDFT      TELAPSE       12.60 TCPU       11.11
 CYC  11 ETOT(AU) -2.047233025361E+03 DETOT -4.55E-13 tst  3.26E-19 PX  2.14E-08

 == SCF ENDED - CONVERGENCE ON ENERGY      E(AU) -2.0472330253614E+03 CYCLES  11


 ENERGY EXPRESSION=HARTREE+FOCK EXCH*0.25000+(PBE        EXCH)*0.75000+PBE        CORR


 TOTAL ENERGY(DFT)(AU)( 11) -2.0472330253614E+03 DE-4.5E-13 tester 3.3E-19
 TTTTTTTTTTTTTTTTTTTTTTTTTTTTTT EDFT        TELAPSE       12.60 TCPU       11.11

 *******************************************************************************
 *                             FORCE CALCULATION                               *
 *******************************************************************************

 TTTTTTTTTTTTTTTTTTTTTTTTTTTTTT NUMDFG      TELAPSE       12.75 TCPU       11.25
 INFORMATION **** EXCPOG **** EXCH. BIPO BUFFER LENGTH (WORDS) =     1672848
 INFORMATION **** GENPOG **** BIPO BUFFER LENGTH (WORDS) =      193300
 TTTTTTTTTTTTTTTTTTTTTTTTTTTTTT SHELXG      TELAPSE       17.40 TCPU       15.88

 CARTESIAN FORCES IN HARTREE/BOHR (ANALYTICAL)
   ATOM                     X                   Y                   Z
   1  30            -7.433440372156E-16  7.661855724605E-15 -7.519249520008E-15
   2 252             7.502829311195E-16 -7.654916830701E-15  7.519249520008E-15

 RESULTANT FORCE     6.938893903907E-18  6.938893903907E-18  0.000000000000E+00

 ATOMIC PART

 THERE ARE NO SYMMETRY ALLOWED DIRECTIONS

 CELL PART

 GRADIENT WITH RESPECT TO THE CELL PARAMETER IN HARTREE/BOHR
ORDER: -D/DA1X, -D/DA1Y, -D/DA1Z
       -D/DA2X, -D/DA2Y, -D/DA2Z
       -D/DA3X, -D/DA3Y, -D/DA3Z
  0.212091399170E-02 -0.212091399170E-02 -0.212091399169E-02
 -0.212091399170E-02  0.212091399170E-02 -0.212091399170E-02
 -0.212091399169E-02 -0.212091399170E-02  0.212091399170E-02

STRESS TENSOR, IN HARTREE/BOHR^3:
ORDER: 11 12 13
       21 22 23
       31 32 33
  0.637194047687E-04 -0.978409904004E-16 -0.266823193068E-16
 -0.355843373884E-16  0.637194047687E-04 -0.711606635807E-16
 -0.266822618936E-16 -0.800518341480E-16  0.637194047686E-04

PRESSURE FROM THE STRESS TENSOR,
IN HARTREE/BOHR^3: -0.63719E-04
PRESSURE IN GIGAPASCAL: -0.1875E+01
CONVERSION FACTOR: 1 HARTREE/BOHR^3= 29421 GIGAPASCAL
WHEN USING VALUES FOR BOHR RADIUS AND HARTREE
FROM IUPAC WEBSITE, APRIL 2009
ENTHALPY: -2.0472574978833E+03

 SYMMETRY ALLOWED FORCES (ANALYTICAL) (DIRECTION, FORCE)

    1 -4.2387651E-02
 TTTTTTTTTTTTTTTTTTTTTTTTTTTTTT TOTGRA      TELAPSE       18.13 TCPU       16.60
 INFORMATION **** optc001 **** GEOMETRY OUTPUT FILE
 CLASSICAL MODEL (SCHLEGEL) USED AS INITIAL HESSIAN MATRIX
 REFERENCE GEOMETRY DEFINED

 MAX GRADIENT      0.042388  THRESHOLD              0.000045 CONVERGED NO
 RMS GRADIENT      0.042388  THRESHOLD              0.000030 CONVERGED NO

 GRADIENT NORM     0.042388  GRADIENT THRESHOLD     0.500000

 EIGENVALUES OF THE ESTIMATED HESSIAN
   2.679    

 INITIAL TRUST RADIUS    0.5000000000E+00

 PREDICTED ENERGY CHANGE    -0.335E-03

 INITIAL DISPLACEMENTS
 -0.015825
 TTTTTTTTTTTTTTTTTTTTTTTTTTTTTT OPTI        TELAPSE       18.19 TCPU       16.66

 OPTOPTOPTOPTOPTOPTOPTOPTOPTOPTOPTOPTOPTOPTOPTOPTOPTOPTOPTOPTOPTOPTOPTOPTOPTOPT

 - INFORMATION ON SCF MOVED TO SCFOUT.LOG
 GEOMETRY OPTIMIZATION INFORMATION STORED IN OPTINFO.DAT

 OPTOPTOPTOPTOPTOPTOPTOPTOPTOPTOPTOPTOPTOPTOPTOPTOPTOPTOPTOPTOPTOPTOPTOPTOPTOPT
 *******************************************************************************
 CELL OPTIMIZATION - POINT    2
 *******************************************************************************
 LATTICE PARAMETERS (ANGSTROMS AND DEGREES) - BOHR = 0.5291772083 ANGSTROM
 PRIMITIVE CELL - CENTRING CODE 5/0 VOLUME=    55.367141 - DENSITY  5.813 g/cm^3
         A              B              C           ALPHA      BETA       GAMMA 
     4.27814696     4.27814696     4.27814696    60.000000  60.000000  60.000000
 *******************************************************************************
 ATOMS IN THE ASYMMETRIC UNIT    2 - ATOMS IN THE UNIT CELL:    2
     ATOM                 X/A                 Y/B                 Z/C    
 *******************************************************************************
      1 T  30 ZN    0.000000000000E+00  0.000000000000E+00  0.000000000000E+00
      2 T 252 TE    2.500000000000E-01  2.500000000000E-01  2.500000000000E-01

 TRANSFORMATION MATRIX PRIMITIVE-CRYSTALLOGRAPHIC CELL
 -1.0000  1.0000  1.0000  1.0000 -1.0000  1.0000  1.0000  1.0000 -1.0000

 *******************************************************************************
 CRYSTALLOGRAPHIC CELL (VOLUME=        221.46856527)
         A              B              C           ALPHA      BETA       GAMMA 
     6.05021346     6.05021346     6.05021346    90.000000  90.000000  90.000000

 COORDINATES IN THE CRYSTALLOGRAPHIC CELL
     ATOM                 X/A                 Y/B                 Z/C    
 *******************************************************************************
      1 T  30 ZN    0.000000000000E+00  0.000000000000E+00  0.000000000000E+00
      2 T 252 TE    2.500000000000E-01 -2.500000000000E-01 -2.500000000000E-01

 T = ATOM BELONGING TO THE ASYMMETRIC UNIT

 TOTAL ENERGY(DFT)(AU)( 10) -2.0472333850630E+03     DE (AU)   -3.597E-04

 UPDATED TRUST RADIUS     0.500E+00

 SYMMETRY ALLOWED FORCES  (COORDINATE, FORCE)

    1 -3.6977589E-03

 GRADIENT NORM     0.003698  GRADIENT THRESHOLD     0.500000

 EIGENVALUES OF THE ESTIMATED HESSIAN
   2.445    

 PREDICTED ENERGY CHANGE    -0.280E-05

 MAX GRADIENT      0.003698  THRESHOLD              0.000045 CONVERGED NO
 RMS GRADIENT      0.003698  THRESHOLD              0.000030 CONVERGED NO
 MAX DISPLAC.      0.001512  THRESHOLD              0.000180 CONVERGED NO
 RMS DISPLAC.      0.001512  THRESHOLD              0.000120 CONVERGED NO
 TTTTTTTTTTTTTTTTTTTTTTTTTTTTTT OPTI        TELAPSE       31.64 TCPU       29.99
 *******************************************************************************
 CELL OPTIMIZATION - POINT    3
 *******************************************************************************
 LATTICE PARAMETERS (ANGSTROMS AND DEGREES) - BOHR = 0.5291772083 ANGSTROM
 PRIMITIVE CELL - CENTRING CODE 5/0 VOLUME=    55.222228 - DENSITY  5.829 g/cm^3
         A              B              C           ALPHA      BETA       GAMMA 
     4.27441129     4.27441129     4.27441129    60.000000  60.000000  60.000000
 *******************************************************************************
 ATOMS IN THE ASYMMETRIC UNIT    2 - ATOMS IN THE UNIT CELL:    2
     ATOM                 X/A                 Y/B                 Z/C    
 *******************************************************************************
      1 T  30 ZN    0.000000000000E+00  0.000000000000E+00  0.000000000000E+00
      2 T 252 TE    2.500000000000E-01  2.500000000000E-01  2.500000000000E-01

 TRANSFORMATION MATRIX PRIMITIVE-CRYSTALLOGRAPHIC CELL
 -1.0000  1.0000  1.0000  1.0000 -1.0000  1.0000  1.0000  1.0000 -1.0000

 *******************************************************************************
 CRYSTALLOGRAPHIC CELL (VOLUME=        220.88891270)
         A              B              C           ALPHA      BETA       GAMMA 
     6.04493041     6.04493041     6.04493041    90.000000  90.000000  90.000000

 COORDINATES IN THE CRYSTALLOGRAPHIC CELL
     ATOM                 X/A                 Y/B                 Z/C    
 *******************************************************************************
      1 T  30 ZN    0.000000000000E+00  0.000000000000E+00  0.000000000000E+00
      2 T 252 TE    2.500000000000E-01 -2.500000000000E-01 -2.500000000000E-01

 T = ATOM BELONGING TO THE ASYMMETRIC UNIT

 TOTAL ENERGY(DFT)(AU)(  9) -2.0472333868544E+03     DE (AU)   -1.791E-06

 UPDATED TRUST RADIUS     0.500E+00

 SYMMETRY ALLOWED FORCES  (COORDINATE, FORCE)

    1  1.0273865E-04

 GRADIENT NORM     0.000103  GRADIENT THRESHOLD     0.500000

 EIGENVALUES OF THE ESTIMATED HESSIAN
   2.513    

 PREDICTED ENERGY CHANGE    -0.210E-08

 MAX GRADIENT      0.000103  THRESHOLD              0.000045 CONVERGED NO
 RMS GRADIENT      0.000103  THRESHOLD              0.000030 CONVERGED NO
 MAX DISPLAC.      0.000041  THRESHOLD              0.000180 CONVERGED YES
 RMS DISPLAC.      0.000041  THRESHOLD              0.000120 CONVERGED YES
 TTTTTTTTTTTTTTTTTTTTTTTTTTTTTT OPTI        TELAPSE       44.55 TCPU       42.79
 *******************************************************************************
 CELL OPTIMIZATION - POINT    4
 *******************************************************************************
 LATTICE PARAMETERS (ANGSTROMS AND DEGREES) - BOHR = 0.5291772083 ANGSTROM
 PRIMITIVE CELL - CENTRING CODE 5/0 VOLUME=    55.226139 - DENSITY  5.828 g/cm^3
         A              B              C           ALPHA      BETA       GAMMA 
     4.27451219     4.27451219     4.27451219    60.000000  60.000000  60.000000
 *******************************************************************************
 ATOMS IN THE ASYMMETRIC UNIT    2 - ATOMS IN THE UNIT CELL:    2
     ATOM                 X/A                 Y/B                 Z/C    
 *******************************************************************************
      1 T  30 ZN    0.000000000000E+00  0.000000000000E+00  0.000000000000E+00
      2 T 252 TE    2.500000000000E-01  2.500000000000E-01  2.500000000000E-01

 TRANSFORMATION MATRIX PRIMITIVE-CRYSTALLOGRAPHIC CELL
 -1.0000  1.0000  1.0000  1.0000 -1.0000  1.0000  1.0000  1.0000 -1.0000

 *******************************************************************************
 CRYSTALLOGRAPHIC CELL (VOLUME=        220.90455542)
         A              B              C           ALPHA      BETA       GAMMA 
     6.04507310     6.04507310     6.04507310    90.000000  90.000000  90.000000

 COORDINATES IN THE CRYSTALLOGRAPHIC CELL
     ATOM                 X/A                 Y/B                 Z/C    
 *******************************************************************************
      1 T  30 ZN    0.000000000000E+00  0.000000000000E+00  0.000000000000E+00
      2 T 252 TE    2.500000000000E-01 -2.500000000000E-01 -2.500000000000E-01

 T = ATOM BELONGING TO THE ASYMMETRIC UNIT

 TOTAL ENERGY(DFT)(AU)(  8) -2.0472333868818E+03     DE (AU)   -2.737E-08

 UPDATED TRUST RADIUS     0.500E+00

 SYMMETRY ALLOWED FORCES  (COORDINATE, FORCE)

    1 -2.2205363E-07

 GRADIENT NORM     0.000000  GRADIENT THRESHOLD     0.500000

 EIGENVALUES OF THE ESTIMATED HESSIAN
   2.518    

 PREDICTED ENERGY CHANGE    -0.979E-14

 MAX GRADIENT      0.000000  THRESHOLD              0.000045 CONVERGED YES
 RMS GRADIENT      0.000000  THRESHOLD              0.000030 CONVERGED YES
 MAX DISPLAC.      0.000000  THRESHOLD              0.000180 CONVERGED YES
 RMS DISPLAC.      0.000000  THRESHOLD              0.000120 CONVERGED YES

 CONVERGENCE TESTS SATISFIED AFTER   4 ENERGY AND GRADIENT CALCULATIONS
 +++++++++++++++++++++++++++++++++++++++++++++++++++++++++++++++++++++++++++++++
 FINALRUN OPTION: RE-STARTING OPTIMIZATION
 +++++++++++++++++++++++++++++++++++++++++++++++++++++++++++++++++++++++++++++++
 TTTTTTTTTTTTTTTTTTTTTTTTTTTTTT OPTI        TELAPSE       56.59 TCPU       54.73
 *******************************************************************************
 CELL OPTIMIZATION - POINT    5
 *******************************************************************************
 LATTICE PARAMETERS (ANGSTROMS AND DEGREES) - BOHR = 0.5291772083 ANGSTROM
 PRIMITIVE CELL - CENTRING CODE 5/0 VOLUME=    55.226130 - DENSITY  5.828 g/cm^3
         A              B              C           ALPHA      BETA       GAMMA 
     4.27451197     4.27451197     4.27451197    60.000000  60.000000  60.000000
 *******************************************************************************
 ATOMS IN THE ASYMMETRIC UNIT    2 - ATOMS IN THE UNIT CELL:    2
     ATOM                 X/A                 Y/B                 Z/C    
 *******************************************************************************
      1 T  30 ZN    0.000000000000E+00  0.000000000000E+00  0.000000000000E+00
      2 T 252 TE    2.500000000000E-01  2.500000000000E-01  2.500000000000E-01

 TRANSFORMATION MATRIX PRIMITIVE-CRYSTALLOGRAPHIC CELL
 -1.0000  1.0000  1.0000  1.0000 -1.0000  1.0000  1.0000  1.0000 -1.0000

 *******************************************************************************
 CRYSTALLOGRAPHIC CELL (VOLUME=        220.90452169)
         A              B              C           ALPHA      BETA       GAMMA 
     6.04507280     6.04507280     6.04507280    90.000000  90.000000  90.000000

 COORDINATES IN THE CRYSTALLOGRAPHIC CELL
     ATOM                 X/A                 Y/B                 Z/C    
 *******************************************************************************
      1 T  30 ZN    0.000000000000E+00  0.000000000000E+00  0.000000000000E+00
      2 T 252 TE    2.500000000000E-01 -2.500000000000E-01 -2.500000000000E-01

 T = ATOM BELONGING TO THE ASYMMETRIC UNIT

 REFERENCE GEOMETRY WILL BE CHANGED

 TOTAL ENERGY(DFT)(AU)(  9) -2.0472336046213E+03     DE (AU)   -2.177E-04

 SYMMETRY ALLOWED FORCES  (COORDINATE, FORCE)

    1 -2.1610183E-04

 GRADIENT NORM     0.000216  GRADIENT THRESHOLD     0.500000

 HESSIAN UPDATE SKIPPED

 EIGENVALUES OF THE ESTIMATED HESSIAN
   2.518    

 PREDICTED ENERGY CHANGE    -0.927E-08

 MAX GRADIENT      0.000216  THRESHOLD              0.000045 CONVERGED NO
 RMS GRADIENT      0.000216  THRESHOLD              0.000030 CONVERGED NO
 MAX DISPLAC.      0.000086  THRESHOLD              0.000180 CONVERGED YES
 RMS DISPLAC.      0.000086  THRESHOLD              0.000120 CONVERGED YES
 TTTTTTTTTTTTTTTTTTTTTTTTTTTTTT OPTI        TELAPSE       74.07 TCPU       72.07
 *******************************************************************************
 CELL OPTIMIZATION - POINT    6
 *******************************************************************************
 LATTICE PARAMETERS (ANGSTROMS AND DEGREES) - BOHR = 0.5291772083 ANGSTROM
 PRIMITIVE CELL - CENTRING CODE 5/0 VOLUME=    55.217922 - DENSITY  5.829 g/cm^3
         A              B              C           ALPHA      BETA       GAMMA 
     4.27430019     4.27430019     4.27430019    60.000000  60.000000  60.000000
 *******************************************************************************
 ATOMS IN THE ASYMMETRIC UNIT    2 - ATOMS IN THE UNIT CELL:    2
     ATOM                 X/A                 Y/B                 Z/C    
 *******************************************************************************
      1 T  30 ZN    0.000000000000E+00  0.000000000000E+00  0.000000000000E+00
      2 T 252 TE    2.500000000000E-01  2.500000000000E-01  2.500000000000E-01

 TRANSFORMATION MATRIX PRIMITIVE-CRYSTALLOGRAPHIC CELL
 -1.0000  1.0000  1.0000  1.0000 -1.0000  1.0000  1.0000  1.0000 -1.0000

 *******************************************************************************
 CRYSTALLOGRAPHIC CELL (VOLUME=        220.87168961)
         A              B              C           ALPHA      BETA       GAMMA 
     6.04477330     6.04477330     6.04477330    90.000000  90.000000  90.000000

 COORDINATES IN THE CRYSTALLOGRAPHIC CELL
     ATOM                 X/A                 Y/B                 Z/C    
 *******************************************************************************
      1 T  30 ZN    0.000000000000E+00  0.000000000000E+00  0.000000000000E+00
      2 T 252 TE    2.500000000000E-01 -2.500000000000E-01 -2.500000000000E-01

 T = ATOM BELONGING TO THE ASYMMETRIC UNIT

 TOTAL ENERGY(DFT)(AU)(  8) -2.0472336046165E+03     DE (AU)    4.852E-09

 UPDATED TRUST RADIUS     0.215E-04

 SYMMETRY ALLOWED FORCES  (COORDINATE, FORCE)

    1  1.9312272E-07

 GRADIENT NORM     0.000000  GRADIENT THRESHOLD     0.500000

 EIGENVALUES OF THE ESTIMATED HESSIAN
   2.521    

 PREDICTED ENERGY CHANGE    -0.740E-14

 MAX GRADIENT      0.000000  THRESHOLD              0.000045 CONVERGED YES
 RMS GRADIENT      0.000000  THRESHOLD              0.000030 CONVERGED YES

 WARNINGWARNINGWARNINGWARNINGWARNINGWARNINGWARNINGWARNINGWARNINGWARNINGWARNING

 CONVERGENCE ON GRADIENT - NO CHANGE IN ENERGY FOR   2 STEPS

 CONVERGENCE TESTS SATISFIED AFTER   6 ENERGY AND GRADIENT CALCULATIONS

 WARNINGWARNINGWARNINGWARNINGWARNINGWARNINGWARNINGWARNINGWARNINGWARNINGWARNING

 +++++++++++++++++++++++++++++++++++++++++++++++++++++++++++++++++++++++++++++++
 FINALRUN OPTION: RE-STARTING OPTIMIZATION
 +++++++++++++++++++++++++++++++++++++++++++++++++++++++++++++++++++++++++++++++
 TTTTTTTTTTTTTTTTTTTTTTTTTTTTTT OPTI        TELAPSE       87.88 TCPU       85.78
 *******************************************************************************
 CELL OPTIMIZATION - POINT    7
 *******************************************************************************
 LATTICE PARAMETERS (ANGSTROMS AND DEGREES) - BOHR = 0.5291772083 ANGSTROM
 PRIMITIVE CELL - CENTRING CODE 5/0 VOLUME=    55.217930 - DENSITY  5.829 g/cm^3
         A              B              C           ALPHA      BETA       GAMMA 
     4.27430038     4.27430038     4.27430038    60.000000  60.000000  60.000000
 *******************************************************************************
 ATOMS IN THE ASYMMETRIC UNIT    2 - ATOMS IN THE UNIT CELL:    2
     ATOM                 X/A                 Y/B                 Z/C    
 *******************************************************************************
      1 T  30 ZN    0.000000000000E+00  0.000000000000E+00  0.000000000000E+00
      2 T 252 TE    2.500000000000E-01  2.500000000000E-01  2.500000000000E-01

 TRANSFORMATION MATRIX PRIMITIVE-CRYSTALLOGRAPHIC CELL
 -1.0000  1.0000  1.0000  1.0000 -1.0000  1.0000  1.0000  1.0000 -1.0000

 *******************************************************************************
 CRYSTALLOGRAPHIC CELL (VOLUME=        220.87171892)
         A              B              C           ALPHA      BETA       GAMMA 
     6.04477357     6.04477357     6.04477357    90.000000  90.000000  90.000000

 COORDINATES IN THE CRYSTALLOGRAPHIC CELL
     ATOM                 X/A                 Y/B                 Z/C    
 *******************************************************************************
      1 T  30 ZN    0.000000000000E+00  0.000000000000E+00  0.000000000000E+00
      2 T 252 TE    2.500000000000E-01 -2.500000000000E-01 -2.500000000000E-01

 T = ATOM BELONGING TO THE ASYMMETRIC UNIT

 REFERENCE GEOMETRY WILL BE CHANGED

 TOTAL ENERGY(DFT)(AU)(  5) -2.0472336044024E+03     DE (AU)    2.141E-07

 SYMMETRY ALLOWED FORCES  (COORDINATE, FORCE)

    1 -9.9765039E-08

 GRADIENT NORM     0.000000  GRADIENT THRESHOLD     0.500000

 HESSIAN UPDATE SKIPPED

 EIGENVALUES OF THE ESTIMATED HESSIAN
   2.521    

 PREDICTED ENERGY CHANGE    -0.197E-14

 MAX GRADIENT      0.000000  THRESHOLD              0.000045 CONVERGED YES
 RMS GRADIENT      0.000000  THRESHOLD              0.000030 CONVERGED YES
 MAX DISPLAC.      0.000000  THRESHOLD              0.000180 CONVERGED YES
 RMS DISPLAC.      0.000000  THRESHOLD              0.000120 CONVERGED YES

 CONVERGENCE TESTS SATISFIED AFTER   7 ENERGY AND GRADIENT CALCULATIONS

 ******************************************************************
 * OPT END - CONVERGED * E(AU):  -2.047233604402E+03  POINTS    7 *
 ******************************************************************

   BAND GAP:                      3.6494  eV 

 EIGENVECTORS IN FORTRAN UNIT  8

 NEIGHBORS OF THE NON-EQUIVALENT ATOMS

 N = NUMBER OF NEIGHBORS AT DISTANCE R
    ATOM  N     R/ANG      R/AU   NEIGHBORS (ATOM LABELS AND CELL INDICES)
   1 ZN   4     2.6175     4.9463    2 TE   0 0 0    2 TE   1 0 0    2 TE   1 0-1
                                     2 TE   1-1 0
   1 ZN  12     4.2743     8.0773    1 ZN  -1 0 0    1 ZN   1 0 0    1 ZN  -1 0 1
                                     1 ZN   1 0-1    1 ZN  -1 1 0    1 ZN   1-1 0
                                     1 ZN   0-1 0    1 ZN   0 1 0    1 ZN   0-1 1
                                     1 ZN   0 1-1    1 ZN   0 0-1    1 ZN   0 0 1
   1 ZN  12     5.0121     9.4714    2 TE   0 1 0    2 TE   0-1 0    2 TE   0 1-1
                                     2 TE   0-1 1    2 TE   0 0 1    2 TE   0 0-1
                                     2 TE   1 1-1    2 TE   1-1 1    2 TE   1-1-1
                                     2 TE   2 0-1    2 TE   2-1 0    2 TE   2-1-1
   1 ZN   6     6.0448    11.4230    1 ZN  -1-1 1    1 ZN   1 1-1    1 ZN  -1 1-1
                                     1 ZN   1-1 1    1 ZN  -1 1 1    1 ZN   1-1-1
   1 ZN  12     6.5871    12.4479    2 TE  -1 0 0    2 TE  -1 0 1    2 TE  -1 1 0
                                     2 TE   1 1 0    2 TE   1 1-2    2 TE   1 0 1
                                     2 TE   1 0-2    2 TE   1-2 1    2 TE   1-2 0
                                     2 TE   2 0 0    2 TE   2 0-2    2 TE   2-2 0
   1 ZN  24     7.4033    13.9902    1 ZN  -2 0 1    1 ZN   2 0-1    1 ZN  -2 1 0
                                     1 ZN   2-1 0    1 ZN  -2 1 1    1 ZN   2-1-1
                                     1 ZN  -1-1 0    1 ZN   1 1 0    1 ZN  -1-1 2
                                     1 ZN   1 1-2    1 ZN  -1 0-1    1 ZN   1 0 1
                                     1 ZN  -1 0 2    1 ZN   1 0-2    1 ZN  -1 2-1
                                     1 ZN   1-2 1    1 ZN  -1 2 0    1 ZN   1-2 0
                                     1 ZN   0-2 1    1 ZN   0 2-1    1 ZN   0-1-1
                                     1 ZN   0 1 1    1 ZN   0-1 2    1 ZN   0 1-2

   2 TE   4     2.6175     4.9463    1 ZN   0 0 0    1 ZN  -1 0 0    1 ZN  -1 0 1
                                     1 ZN  -1 1 0
   2 TE  12     4.2743     8.0773    2 TE  -1 0 0    2 TE   1 0 0    2 TE  -1 0 1
                                     2 TE   1 0-1    2 TE  -1 1 0    2 TE   1-1 0
                                     2 TE   0-1 0    2 TE   0 1 0    2 TE   0-1 1
                                     2 TE   0 1-1    2 TE   0 0-1    2 TE   0 0 1
   2 TE  12     5.0121     9.4714    1 ZN   0-1 0    1 ZN   0 1 0    1 ZN   0-1 1
                                     1 ZN   0 1-1    1 ZN   0 0-1    1 ZN   0 0 1
                                     1 ZN  -1-1 1    1 ZN  -1 1-1    1 ZN  -1 1 1
                                     1 ZN  -2 0 1    1 ZN  -2 1 0    1 ZN  -2 1 1
   2 TE   6     6.0448    11.4230    2 TE  -1-1 1    2 TE   1 1-1    2 TE  -1 1-1
                                     2 TE   1-1 1    2 TE  -1 1 1    2 TE   1-1-1
   2 TE  12     6.5871    12.4479    1 ZN   1 0 0    1 ZN   1 0-1    1 ZN   1-1 0
                                     1 ZN  -1-1 0    1 ZN  -1-1 2    1 ZN  -1 0-1
                                     1 ZN  -1 0 2    1 ZN  -1 2-1    1 ZN  -1 2 0
                                     1 ZN  -2 0 0    1 ZN  -2 0 2    1 ZN  -2 2 0
   2 TE  24     7.4033    13.9902    2 TE  -2 0 1    2 TE   2 0-1    2 TE  -2 1 0
                                     2 TE   2-1 0    2 TE  -2 1 1    2 TE   2-1-1
                                     2 TE  -1-1 0    2 TE   1 1 0    2 TE  -1-1 2
                                     2 TE   1 1-2    2 TE  -1 0-1    2 TE   1 0 1
                                     2 TE  -1 0 2    2 TE   1 0-2    2 TE  -1 2-1
                                     2 TE   1-2 1    2 TE  -1 2 0    2 TE   1-2 0
                                     2 TE   0-2 1    2 TE   0 2-1    2 TE   0-1-1
                                     2 TE   0 1 1    2 TE   0-1 2    2 TE   0 1-2


 FINAL OPTIMIZED GEOMETRY - DIMENSIONALITY OF THE SYSTEM      3
 (NON PERIODIC DIRECTION: LATTICE PARAMETER FORMALLY SET TO 500)
 *******************************************************************************
 LATTICE PARAMETERS (ANGSTROMS AND DEGREES) - BOHR = 0.5291772083 ANGSTROM
 PRIMITIVE CELL - CENTRING CODE 5/0 VOLUME=    55.217930 - DENSITY  5.829 g/cm^3
         A              B              C           ALPHA      BETA       GAMMA 
     4.27430038     4.27430038     4.27430038    60.000000  60.000000  60.000000
 *******************************************************************************
 ATOMS IN THE ASYMMETRIC UNIT    2 - ATOMS IN THE UNIT CELL:    2
     ATOM                 X/A                 Y/B                 Z/C    
 *******************************************************************************
      1 T  30 ZN    0.000000000000E+00  0.000000000000E+00  0.000000000000E+00
      2 T 252 TE    2.500000000000E-01  2.500000000000E-01  2.500000000000E-01

 TRANSFORMATION MATRIX PRIMITIVE-CRYSTALLOGRAPHIC CELL
 -1.0000  1.0000  1.0000  1.0000 -1.0000  1.0000  1.0000  1.0000 -1.0000

 *******************************************************************************
 CRYSTALLOGRAPHIC CELL (VOLUME=        220.87171892)
         A              B              C           ALPHA      BETA       GAMMA 
     6.04477357     6.04477357     6.04477357    90.000000  90.000000  90.000000

 COORDINATES IN THE CRYSTALLOGRAPHIC CELL
     ATOM                 X/A                 Y/B                 Z/C    
 *******************************************************************************
      1 T  30 ZN    0.000000000000E+00  0.000000000000E+00  0.000000000000E+00
      2 T 252 TE    2.500000000000E-01 -2.500000000000E-01 -2.500000000000E-01

 T = ATOM BELONGING TO THE ASYMMETRIC UNIT
 INFORMATION **** fort.34 **** GEOMETRY OUTPUT FILE

 DIRECT LATTICE VECTORS CARTESIAN COMPONENTS (ANGSTROM)
          X                    Y                    Z
   0.000000000000E+00   0.302238678271E+01   0.302238678271E+01
   0.302238678271E+01   0.000000000000E+00   0.302238678271E+01
   0.302238678271E+01   0.302238678271E+01   0.000000000000E+00


 CARTESIAN COORDINATES - PRIMITIVE CELL
 *******************************************************************************
 *      ATOM          X(ANGSTROM)         Y(ANGSTROM)         Z(ANGSTROM)
 *******************************************************************************
    1    30 ZN    0.000000000000E+00  0.000000000000E+00  0.000000000000E+00
    2   252 TE    1.511193391353E+00 -1.511193391353E+00 -1.511193391353E+00

 DFT PARAMETERS

     ATOM       ELECTRONS   NET CHARGE   R(ANGSTROM)
   1  30  ZN     30.0000      0.0000     1.37000000
   2 252  TE     24.0000      0.0000     1.37000000

 SIZE OF GRID=       5630
 TTTTTTTTTTTTTTTTTTTTTTTTTTTTTT MAKE_GRID2  TELAPSE       99.57 TCPU       97.36
 BECKE WEIGHT FUNCTION
 RADSAFE =     2.00
 TOLERANCES - DENSITY:10**- 6; POTENTIAL:10**- 9; GRID WGT:10**-14

 RADIAL INTEGRATION  - INTERVALS (POINTS,UPPER LIMIT):            1( 99,  4.0*R)

 ANGULAR INTEGRATION - INTERVALS (ACCURACY LEVEL [N. POINTS] UPPER LIMIT):
  1(  6[ 146]   0.2)  2( 11[ 302]   0.5)  3( 14[ 590]   0.9)  4( 18[1454]   3.5)
  5( 14[ 590]9999.0)
 EEEEEEEEEE INT_CALC TERMINATION  DATE 05 09 2023 TIME 18:14:27.3

 *******************************************************************************
 ICSD_CollCode77072.cif                                                          
 CRYSTAL - SCF - TYPE OF CALCULATION :  RESTRICTED CLOSED SHELL
 *******************************************************************************

 CAPPA:IS1  8;IS2  8;IS3  8; K PTS MONK NET  29; SYMMOPS:K SPACE  48;G SPACE  24

 TTTTTTTTTTTTTTTTTTTTTTTTTTTTTT SDIK        TELAPSE       99.61 TCPU       97.40

 INFORMATION FROM INTEGRAL EVALUATION

 RESTART FROM A PREVIOUS DENSITY MATRIX - DEP ACTIVE
 NUMBER OF COUPLE SETS (NEW, OLD, FOUND):     342     342     342
 NUMBER OF IRREDUCIBLE G VECTORS        :    1825    1825    1825
 TTTTTTTTTTTTTTTTTTTTTTTTTTTTTT MOQGAD      TELAPSE       99.62 TCPU       97.41
 TTTTTTTTTTTTTTTTTTTTTTTTTTTTTT SHELLXN     TELAPSE      100.24 TCPU       98.03
 TTTTTTTTTTTTTTTTTTTTTTTTTTTTTT MONMO3      TELAPSE      100.33 TCPU       98.12
 NUMERICALLY INTEGRATED DENSITY     54.0000255160
 TTTTTTTTTTTTTTTTTTTTTTTTTTTTTT NUMDFT      TELAPSE      100.39 TCPU       98.17
 CYC   0 ETOT(AU) -2.047233604402E+03 DETOT -2.05E+03 tst  5.05E-20 PX  1.00E+00
 TTTTTTTTTTTTTTTTTTTTTTTTTTTTTT DIIS        TELAPSE      100.39 TCPU       98.18
 TTTTTTTTTTTTTTTTTTTTTTTTTTTTTT FDIK        TELAPSE      100.40 TCPU       98.18
 INSULATING STATE
 TOP OF VALENCE BANDS -    BAND     27; K    1; EIG -2.0423873E-01 AU
 BOTTOM OF VIRTUAL BANDS - BAND     28; K    1; EIG -7.0125408E-02 AU
 DIRECT ENERGY BAND GAP:   3.6494 eV
 TTTTTTTTTTTTTTTTTTTTTTTTTTTTTT PDIG        TELAPSE      100.41 TCPU       98.19
 TTTTTTTTTTTTTTTTTTTTTTTTTTTTTT MOQGAD      TELAPSE      100.41 TCPU       98.19
 TTTTTTTTTTTTTTTTTTTTTTTTTTTTTT SHELLXN     TELAPSE      101.03 TCPU       98.81
 TTTTTTTTTTTTTTTTTTTTTTTTTTTTTT MONMO3      TELAPSE      101.12 TCPU       98.90
 NUMERICALLY INTEGRATED DENSITY     54.0000255160
 TTTTTTTTTTTTTTTTTTTTTTTTTTTTTT NUMDFT      TELAPSE      101.18 TCPU       98.95
 CYC   1 ETOT(AU) -2.047233604402E+03 DETOT  2.05E-12 tst  0.00E+00 PX  9.37E-11
 TTTTTTTTTTTTTTTTTTTTTTTTTTTTTT DIIS        TELAPSE      101.18 TCPU       98.96
 DIIS TEST: 0.37542E-18 AT SCF   CYCLE   1 - MIX   30 %
 TTTTTTTTTTTTTTTTTTTTTTTTTTTTTT FDIK        TELAPSE      101.18 TCPU       98.96
 INSULATING STATE
 TOP OF VALENCE BANDS -    BAND     27; K    1; EIG -2.0423873E-01 AU
 BOTTOM OF VIRTUAL BANDS - BAND     28; K    1; EIG -7.0125408E-02 AU
 DIRECT ENERGY BAND GAP:   3.6494 eV
 TTTTTTTTTTTTTTTTTTTTTTTTTTTTTT PDIG        TELAPSE      101.20 TCPU       98.97
 TTTTTTTTTTTTTTTTTTTTTTTTTTTTTT MOQGAD      TELAPSE      101.20 TCPU       98.97
 TTTTTTTTTTTTTTTTTTTTTTTTTTTTTT SHELLXN     TELAPSE      101.88 TCPU       99.66
 ::: PSEUDO TOTAL   ENERGY                        -1.9777314579658E+03
 ::: VIRIAL COEFFICIENT                            9.7428162179709E-01
 TTTTTTTTTTTTTTTTTTTTTTTTTTTTTT MONMO3      TELAPSE      101.97 TCPU       99.75
 NUMERICALLY INTEGRATED DENSITY     54.0000255160
 EXCHANGE ENERGY: -0.669388996297E+02  CORRELATION ENERGY: -0.256324680688E+01
 TTTTTTTTTTTTTTTTTTTTTTTTTTTTTT NUMDFT      TELAPSE      102.03 TCPU       99.80
 CYC   2 ETOT(AU) -2.047233604402E+03 DETOT -2.73E-12 tst  1.74E-21 PX  9.37E-11

 == SCF ENDED - CONVERGENCE ON ENERGY      E(AU) -2.0472336044024E+03 CYCLES   2


 ENERGY EXPRESSION=HARTREE+FOCK EXCH*0.25000+(PBE        EXCH)*0.75000+PBE        CORR


 TOTAL ENERGY(DFT)(AU)(  2) -2.0472336044024E+03 DE-2.7E-12 tester 1.7E-21
 TTTTTTTTTTTTTTTTTTTTTTTTTTTTTT EDFT        TELAPSE      102.03 TCPU       99.80
 INSULATING STATE
 TOP OF VALENCE BANDS -    BAND     27; K    1; EIG -2.0423873E-01 AU
 BOTTOM OF VIRTUAL BANDS - BAND     28; K    1; EIG -7.0125408E-02 AU
 DIRECT ENERGY BAND GAP:   3.6494 eV
 EIGENVECTORS IN FORTRAN UNIT  8
 EEEEEEEEEE SCF TERMINATION  DATE 05 09 2023 TIME 18:14:29.8

     *********************************************************************
     * ***************************************************************** *
     * *        COUPLED-PERTURBED KOHN-SHAM CALCULATION (CPKS)         * *
     * *        REFERENCES TO BE QUOTED WHEN USING THIS MODULE:        * *
     * *        (1) M. Ferrero, M. Rerat, R. Orlando, R.Dovesi,        * *
     * *            J. Comput. Chem. 29 (2008), 1450;                  * *
     * *            J. Chem. Phys. 128 (2008), 014110.                 * *
     * *        (2) M. Ferrero, M. Rerat, B. Kirtman, R. Dovesi,       * *
     * *            J. Chem. Phys. 129 (2008), 244110.                 * *
     * ***************************************************************** *
     *********************************************************************

 INFORMATION **** CP_DRIVER **** CONVERGENCE ON ALPHA: 10**          -3
 INFORMATION **** CP_DRIVER **** MAX NUMBER OF CPHF/CPKS CYCLES         200
 INFORMATION **** CP_DRIVER **** CPHF/CPKS DAMPING PERCENTAGE:          60
 STATIC FIELD (OR H*NU < 1E-15 HA)

 *******************************************************************************

 ELECTRIC FIELD APPLIED ALONG CARTESIAN DIRECTION X

 *******************************************************************************
 THE NUMBER OF SYMMETRY OPERATORS HAS BEEN REDUCED FROM 24 TO  1

 NEW GRID IN RECIPROCAL SPACE
 *******************************************************************************
 POINTS IN THE IBZ                 260 SHRINKING FACTORS               8  8  8
 *******************************************************************************
 *** K POINTS COORDINATES (OBLIQUE COORDINATES IN UNITS OF SHRINK FAC. )
   1-R(  0  0  0)   2-C(  1  0  0)   3-C(  0  1  0)   4-C(  7  7  7)
   5-C(  0  0  1)   6-C(  2  0  0)   7-C(  0  2  0)   8-C(  6  6  6)
   9-C(  0  0  2)  10-C(  3  0  0)  11-C(  0  3  0)  12-C(  5  5  5)
  13-C(  0  0  3)  14-R(  4  0  0)  15-R(  0  4  0)  16-R(  4  4  4)
  17-R(  0  0  4)  18-C(  1  1  0)  19-C(  0  1  1)  20-C(  1  0  1)
  21-C(  2  1  0)  22-C(  1  2  0)  23-C(  6  6  7)  24-C(  7  7  1)
  25-C(  0  2  1)  26-C(  1  0  2)  27-C(  1  7  7)  28-C(  2  0  1)
  29-C(  0  1  2)  30-C(  6  7  6)  31-C(  7  6  6)  32-C(  7  1  7)
  33-C(  3  1  0)  34-C(  1  3  0)  35-C(  5  5  6)  36-C(  7  7  2)
  37-C(  0  3  1)  38-C(  1  0  3)  39-C(  2  7  7)  40-C(  3  0  1)
  41-C(  0  1  3)  42-C(  5  6  5)  43-C(  6  5  5)  44-C(  7  2  7)
  45-C(  4  1  0)  46-C(  1  4  0)  47-C(  4  4  5)  48-C(  7  7  3)
  49-C(  0  4  1)  50-C(  1  0  4)  51-C(  3  7  7)  52-C(  4  0  1)
  53-C(  0  1  4)  54-C(  4  5  4)  55-C(  5  4  4)  56-C(  7  3  7)
  57-C(  5  1  0)  58-C(  1  5  0)  59-C(  3  3  4)  60-C(  7  7  4)
  61-C(  0  5  1)  62-C(  1  0  5)  63-C(  4  7  7)  64-C(  5  0  1)
  65-C(  0  1  5)  66-C(  3  4  3)  67-C(  4  3  3)  68-C(  7  4  7)
  69-C(  6  1  0)  70-C(  1  6  0)  71-C(  2  2  3)  72-C(  7  7  5)
  73-C(  0  6  1)  74-C(  1  0  6)  75-C(  5  7  7)  76-C(  6  0  1)
  77-C(  0  1  6)  78-C(  2  3  2)  79-C(  3  2  2)  80-C(  7  5  7)
  81-C(  7  1  0)  82-C(  1  1  2)  83-C(  0  7  1)  84-C(  1  0  7)
  85-C(  6  7  7)  86-C(  1  2  1)  87-C(  2  2  0)  88-C(  0  2  2)
  89-C(  2  0  2)  90-C(  3  2  0)  91-C(  2  3  0)  92-C(  5  5  7)
  93-C(  6  6  1)  94-C(  0  3  2)  95-C(  2  0  3)  96-C(  1  6  6)
  97-C(  3  0  2)  98-C(  0  2  3)  99-C(  5  7  5) 100-C(  7  5  5)
 101-C(  6  1  6) 102-C(  4  2  0) 103-C(  2  4  0) 104-C(  4  4  6)
 105-C(  6  6  2) 106-C(  0  4  2) 107-C(  2  0  4) 108-C(  2  6  6)
 109-C(  4  0  2) 110-C(  0  2  4) 111-C(  4  6  4) 112-C(  6  4  4)
 113-C(  6  2  6) 114-C(  5  2  0) 115-C(  2  5  0) 116-C(  3  3  5)
 117-C(  6  6  3) 118-C(  0  5  2) 119-C(  2  0  5) 120-C(  3  6  6)
 121-C(  5  0  2) 122-C(  0  2  5) 123-C(  3  5  3) 124-C(  5  3  3)
 125-C(  6  3  6) 126-C(  6  2  0) 127-C(  2  2  4) 128-C(  0  6  2)
 129-C(  2  0  6) 130-C(  4  6  6) 131-C(  2  4  2) 132-C(  3  3  0)
 133-C(  0  3  3) 134-C(  3  0  3) 135-C(  4  3  0) 136-C(  3  4  0)
 137-C(  4  4  7) 138-C(  5  5  1) 139-C(  0  4  3) 140-C(  3  0  4)
 141-C(  1  5  5) 142-C(  4  0  3) 143-C(  0  3  4) 144-C(  4  7  4)
 145-C(  7  4  4) 146-C(  5  1  5) 147-C(  5  3  0) 148-C(  3  3  6)
 149-C(  0  5  3) 150-C(  3  0  5) 151-C(  2  5  5) 152-C(  3  6  3)
 153-R(  4  4  0) 154-R(  0  4  4) 155-R(  4  0  4) 156-C(  3  2  1)
 157-C(  1  2  7) 158-C(  1  3  2) 159-C(  2  1  3) 160-C(  1  7  6)
 161-C(  2  7  1) 162-C(  2  3  1) 163-C(  2  1  7) 164-C(  3  1  2)
 165-C(  1  2  3) 166-C(  7  1  6) 167-C(  7  2  1) 168-C(  4  2  1)
 169-C(  1  3  7) 170-C(  4  5  6) 171-C(  7  6  2) 172-C(  1  4  2)
 173-C(  2  1  4) 174-C(  2  7  6) 175-C(  3  7  1) 176-C(  7  1  3)
 177-C(  5  6  4) 178-C(  6  4  5) 179-C(  6  2  7) 180-C(  2  4  1)
 181-C(  3  1  7) 182-C(  5  4  6) 183-C(  6  7  2) 184-C(  4  1  2)
 185-C(  1  2  4) 186-C(  7  2  6) 187-C(  7  3  1) 188-C(  1  7  3)
 189-C(  6  5  4) 190-C(  4  6  5) 191-C(  2  6  7) 192-C(  5  2  1)
 193-C(  1  4  7) 194-C(  3  4  5) 195-C(  7  6  3) 196-C(  1  5  2)
 197-C(  2  1  5) 198-C(  3  7  6) 199-C(  4  7  1) 200-C(  7  1  4)
 201-C(  4  5  3) 202-C(  5  3  4) 203-C(  6  3  7) 204-C(  4  3  1)
 205-C(  2  3  7) 206-C(  1  4  3) 207-C(  3  1  4) 208-C(  1  6  5)
 209-C(  3  7  2) 210-C(  3  4  1) 211-C(  3  2  7) 212-C(  4  1  3)
 213-C(  1  3  4) 214-C(  6  1  5) 215-C(  7  3  2) 216-C(  5  3  1)
 217-C(  2  4  7) 218-C(  3  4  6) 219-C(  6  5  2) 220-C(  1  5  3)
 221-C(  3  1  5) 222-C(  2  6  5) 223-C(  4  7  2) 224-C(  7  2  4)
 225-C(  4  6  3) 226-C(  6  3  4) 227-C(  5  2  6) 228-C(  3  5  1)
 229-C(  4  2  7) 230-C(  4  3  6) 231-C(  5  6  2) 232-C(  5  1  3)
 233-C(  1  3  5) 234-C(  6  2  5) 235-C(  7  4  2) 236-C(  2  7  4)
 237-C(  6  4  3) 238-C(  3  6  4) 239-C(  2  5  6) 240-C(  6  3  1)
 241-C(  2  3  5) 242-C(  1  6  3) 243-C(  3  1  6) 244-C(  3  6  5)
 245-C(  3  5  2) 246-C(  3  6  1) 247-C(  3  2  5) 248-C(  6  1  3)
 249-C(  1  3  6) 250-C(  6  3  5) 251-C(  5  3  2) 252-C(  5  4  1)
 253-C(  1  5  4) 254-C(  4  1  5) 255-C(  4  5  1) 256-C(  5  1  4)
 257-C(  1  4  5) 258-C(  6  4  2) 259-C(  2  6  4) 260-C(  4  2  6)

 GCALCO - MAX INDICES DIRECT LATTICE VECTOR    14    14    14
 NO.OF VECTORS CREATED 6999 STARS  105 RMAX    85.48165 BOHR
 TTTTTTTTTTTTTTTTTTTTTTTTTTTTTT gordsh1     TELAPSE      102.21 TCPU       99.96

 MATRIX SIZE: P(G)  312780, F(G)   24882, P(G) IRR  165509, F(G) IRR   26029
 MAX G-VECTOR INDEX FOR 1- AND 2-ELECTRON INTEGRALS 435

 TTTTTTTTTTTTTTTTTTTTTTTTTTTTTT INPUT       TELAPSE      102.21 TCPU       99.96
 TTTTTTTTTTTTTTTTTTTTTTTTTTTTTT SYMM        TELAPSE      102.21 TCPU       99.96

 ***** NEW REFERENCE GEOMETRY *****
 TTTTTTTTTTTTTTTTTTTTTTTTTTTTTT INT_SCREEN  TELAPSE      102.21 TCPU       99.96

 DFT PARAMETERS

     ATOM       ELECTRONS   NET CHARGE   R(ANGSTROM)
   1  30  ZN     30.0000      0.0000     1.37000000
   2 252  TE     24.0000      0.0000     1.37000000

 SIZE OF GRID=      98040
 TTTTTTTTTTTTTTTTTTTTTTTTTTTTTT MAKE_GRID2  TELAPSE      104.17 TCPU      101.91
 BECKE WEIGHT FUNCTION
 RADSAFE =     2.00
 TOLERANCES - DENSITY:10**- 6; POTENTIAL:10**- 9; GRID WGT:10**-14

 RADIAL INTEGRATION  - INTERVALS (POINTS,UPPER LIMIT):            1( 99,  4.0*R)

 ANGULAR INTEGRATION - INTERVALS (ACCURACY LEVEL [N. POINTS] UPPER LIMIT):
  1(  6[ 146]   0.2)  2( 11[ 302]   0.5)  3( 14[ 590]   0.9)  4( 18[1454]   3.5)
  5( 14[ 590]9999.0)
[...]
     ZZZZ    5.2078E+05 (   5.2077E+05)   2.9271E+03   2.7674E+01   1.9793E+01

 *******************************************************************************
 SECOND HYPERPOLARIZABILITY (GAMMA) IS RELATED TO THIRD ELECTRIC
         SUSCEPTIBILITY (CHI(3)) AS FOLLOWS:

                             CHI(3)=GAMMA*2PI/(3V)

         IN THE PRESENT CASE 2PI/3V =      0.0056

         GAMMA AND CHI(3) ARE EXPRESSED IN M^(-1)*L^4*T^2 AND IN F^(-2),
         RESPECTIVELY (L=LENGTH, M=MASS, T=TIME, F=FIELD). ATOMIC UNITS
         ARE USED.

         ELECTRIC SUSCEPTIBILITY IN THE THIRD HARMONIC GENERATION ( THG )
         CONVENTION IS CHI(3)(THG)=(1/4)*CHI(3).

              g(MKS)=CHI(3)(THG)*5.14220632^(-2)   (10^(-22) m^2/V^2)

              g(CGS)=CHI(3)(THG)*1.7152535^(-2)   (10^(-14) esu)

         (5.14220632*10^(11))^(-2) AND (4PI*1.7152535*10^7)^(-2) ARE THE CON-
         VERSION FACTORS FOR OBTAINING CHI(3)(THG) IN m^2/V^2 (MKS) AND
         esu (CGS), RESPECTIVELY: A FIELD WITH 1 A.U. MODULUS

                                  F=Q/(4PI*E0*R^2)

         CORRESPONDS TO  0.514220632*10^(12) V/m  (OR 1.7152535*10^7 esu),
         THEREFORE, CHI(3)(THG) IN MKS (OR CGS) CAN BE OBTAINED DIVIDING
         THE A.U. VALUE BY THE SQUARE OF THIS NUMBER.
         BECAUSE OF A SLIGHT DIFFERENCE IN DEFINITION

                             CHI(3)=P/(E0*F^3)   (MKS)

                             CHI(3)=P/F^3        (CGS)

         WHERE P IS  THE  POLARIZATION  VECTOR AND F THE APPLIED ELECTRIC
         FIELD, CONSISTENCY IS  PRESERVED BY MULTIPLYING THE CGS VALUE FOR
         THE CONSTANT PERMITTIVITY OF THE VACUUM, E0=1/(4PI).

         FOR REFERENCES ABOUT UNITS AND CONVERSION FACTORS CONSULT THE WEB
         SITE www.physics.nist.gov/constants.


 GCALCO - MAX INDICES DIRECT LATTICE VECTOR    14    14    14
 NO.OF VECTORS CREATED 6999 STARS  105 RMAX    85.48165 BOHR

 CAPPA:IS1  8;IS2  8;IS3  8; K PTS MONK NET  29; SYMMOPS:K SPACE  48;G SPACE  24

 TTTTTTTTTTTTTTTTTTTTTTTTTTTTTT gordsh1     TELAPSE      256.94 TCPU      252.96

 MATRIX SIZE: P(G)  312780, F(G)   24882, P(G) IRR   15649, F(G) IRR    4564
 MAX G-VECTOR INDEX FOR 1- AND 2-ELECTRON INTEGRALS 435

 TTTTTTTTTTTTTTTTTTTTTTTTTTTTTT INPUT       TELAPSE      256.94 TCPU      252.96

 THERE ARE NO SYMMETRY ALLOWED DIRECTIONS
 TTTTTTTTTTTTTTTTTTTTTTTTTTTTTT SYMM        TELAPSE      257.01 TCPU      253.04
 TTTTTTTTTTTTTTTTTTTTTTTTTTTTTT INT_SCREEN  TELAPSE      257.01 TCPU      253.04

 COMPUTING IR TENSOR ALONG DIRECTION X
 COMPUTING IR TENSOR ALONG DIRECTION Y
 COMPUTING IR TENSOR ALONG DIRECTION Z

 TTTTTTTTTTTTTTTTTTTTTTTTTTTTTT IR TENSOR   TELAPSE      401.78 TCPU      394.93

 COMPUTING RAMAN TENSOR ALONG DIRECTION XX
 COMPUTING RAMAN TENSOR ALONG DIRECTION XY
 COMPUTING RAMAN TENSOR ALONG DIRECTION XZ
 COMPUTING RAMAN TENSOR ALONG DIRECTION YY
 COMPUTING RAMAN TENSOR ALONG DIRECTION YZ
 COMPUTING RAMAN TENSOR ALONG DIRECTION ZZ


 GCALCO - MAX INDICES DIRECT LATTICE VECTOR    14    14    14
 NO.OF VECTORS CREATED 6999 STARS  105 RMAX    85.48165 BOHR

 CAPPA:IS1  8;IS2  8;IS3  8; K PTS MONK NET  29; SYMMOPS:K SPACE  48;G SPACE  24

 TTTTTTTTTTTTTTTTTTTTTTTTTTTTTT gordsh1     TELAPSE      895.41 TCPU      885.76

 MATRIX SIZE: P(G)  312780, F(G)   24882, P(G) IRR   15649, F(G) IRR    4564
 MAX G-VECTOR INDEX FOR 1- AND 2-ELECTRON INTEGRALS 435

 TTTTTTTTTTTTTTTTTTTTTTTTTTTTTT INPUT       TELAPSE      895.41 TCPU      885.76

 THERE ARE NO SYMMETRY ALLOWED DIRECTIONS
 TTTTTTTTTTTTTTTTTTTTTTTTTTTTTT SYMM        TELAPSE      895.44 TCPU      885.79
 TTTTTTTTTTTTTTTTTTTTTTTTTTTTTT INT_SCREEN  TELAPSE      895.44 TCPU      885.79
 TTTTTTTTTTTTTTTTTTTTTTTTTTTTTT RAMAN       TELAPSE      895.45 TCPU      885.80


 *******************************************************************************
 *                                                                             *
 *                                                                             *
 *         FFFFF  RRRR   EEEE   QQQ   U   U  EEEE  N   N   CCC  Y   Y          *
 *         F      R   R  E     Q   Q  U   U  E     NN  N  C      Y Y           *
 *         FFF    RRRR   EEEE  Q   Q  U   U  EEEE  N N N  C       Y            *
 *         F      R   R  E     Q  QQ  U   U  E     N  NN  C       Y            *
 *         F      R   R  EEEE   QQ Q   UUU   EEEE  N   N   CCC    Y            *
 *                                                                             *
 *                                                                             *
 * CALCULATION OF PHONON FREQUENCIES AT THE GAMMA POINT.                       *
 *                                                                             *
 * SYMMETRY IS EXPLOITED TO BUILD THE TOTAL HESSIAN MATRIX.                    *
 * (F. PASCALE PHD THESIS TURIN-PARIS 2002)                                    *
 *                                                                             *
 *******************************************************************************


 * INTENSITIES COMPUTED VIA THE CPHF ANALYTICAL APPROACH                       *
 *                                                                             *
 * REFERENCES TO BE QUOTED WHEN USING THIS MODULE:                             *
 *                                                                             *
 * F. Pascale, C.M. Zicovich-Wilson, F. Lopez, B. Civalleri                    *
 * R. Orlando, R. Dovesi                                                       *
 * The calculation of the vibration frequencies of crystalline                 *
 * compounds and its implementation in the CRYSTAL code                        *
 * J. Comput. Chem. 25 (2004) 888-897                                          *
 *                                                                             *
 * C.M. Zicovich-Wilson, F. Pascale, C. Roetti, V.R. Saunders,                 *
 * R. Orlando, R. Dovesi                                                       *
 * The calculation of the vibration frequencies of alpha-quartz:               *
 * the effect of hamiltonian and basis set                                     *
 * J. Comput. Chem. 25 (2004) 1873-1881                                        *
 *******************************************************************************


 *                                                                             *
 * FOR THE ANALYTICAL IR INTENSITIES MODULE PLEASE CITE:                       *
 *                                                                             *
 * L. Maschio, B. Kirtman, R. Orlando, M. Rerat,                               *
 * Ab initio analytical infrared intensities for periodic systems              *
 * through a coupled perturbed Hartree-Fock/Kohn-Sham method                   *
 * J. Chem. Phys. 137, 204113 (2012)                                           *
 *******************************************************************************



 ATOMS ISOTOPIC MASS (AMU) FOR FREQUENCY CALCULATION 

    1 ZN     63.9291    2 TE    129.9067

 INFORMATION CONCERNING THE SCF+GRADIENT CALCULATIONS REQUIRED FOR
 GENERATING FREQUENCIES. IN PRINCIPLE 3N+1 SCF + GRADIENT
 CALCULATIONS  ARE REQUIRED;
 FOR EACH OF THEM THE REMAINING POINT SYMMETRY IS INDICATED.
 POINT SYMMETRY PERMITS TO GENERATE GRADIENTS FOR DISPLACEMENT B 
 STARTING FROM THE GRADIENT GENERATED BY DISPLACEMENT A.

   N   LABEL SYMBOL DISPLACEMENT     SYM. 

   1     EQUILIBRIUM GEOMETRY           24

   2      1   ZN           DX        GENERATED BY TRANSLATIONAL INVARIANCE
   3      1   ZN           DY        GENERATED BY TRANSLATIONAL INVARIANCE
   4      1   ZN           DZ        GENERATED BY TRANSLATIONAL INVARIANCE
   5      2   TE           DX           4
   6      2   TE           DY        GENERATED FROM LINE X WITH OP   6
   7      2   TE           DZ        GENERATED FROM LINE X WITH OP   5
 USE OF RESIDUAL SYMMETRY AFTER DISPLACEMENT

 NUMERICAL GRADIENT COMPUTED WITH A SINGLE DISPLACEMENT (+DX) FOR EACH
 CARTESIAN COORDINATE WITH RESPECT TO THE EQUILIBRIUM CONFIGURATION
 DX=  0.003 ANGSTROM
 NUMBER OF IRREDUCIBLE ATOMS                     2
 NUMBER OF SCF+GRADIENT CALCULATIONS             2

  ATOM  SYMOP  ORDER
    1     24      4
    2     24      4

 ATOM  : IRREDUCIBLE ATOM
 SYMOP : NUMBER OF SYMMETRY OPERATORS THAT DOESN'T MOVE THE IRREDUCIBLE ATOM
 ORDER : MAXIMUM ORDER AMONG THE OPERATORS OF THE IRREDUCIBLE ATOM

 *******************************************************************************

 TTTTTTTTTTTTTTTTTTTTTTTTTTTTTT gordsh1     TELAPSE      895.45 TCPU      885.80

 MATRIX SIZE: P(G)  312780, F(G)   24882, P(G) IRR   15649, F(G) IRR    4564
 MAX G-VECTOR INDEX FOR 1- AND 2-ELECTRON INTEGRALS 435

 TTTTTTTTTTTTTTTTTTTTTTTTTTTTTT INPUT       TELAPSE      895.46 TCPU      885.80

 THERE ARE NO SYMMETRY ALLOWED DIRECTIONS
 TTTTTTTTTTTTTTTTTTTTTTTTTTTTTT SYMM        TELAPSE      895.46 TCPU      885.81
 TTTTTTTTTTTTTTTTTTTTTTTTTTTTTT INT_SCREEN  TELAPSE      895.46 TCPU      885.81

 HHHHHHHHHHHHHHHHHHHHHHHHHHHHHHHHHHHHHHHHHHHHHHHHHHHHHHHHHHHHHHHHHHHHHHHHHHHHHHH
                   FORCE CONSTANT MATRIX - NUMERICAL ESTIMATE
 HHHHHHHHHHHHHHHHHHHHHHHHHHHHHHHHHHHHHHHHHHHHHHHHHHHHHHHHHHHHHHHHHHHHHHHHHHHHHHH
 MAX ABS(DGRAD): MAXIMUM ABSOLUTE GRADIENT DIFFERENCE WITH RESPECT TO
                 THE CENTRAL POINT
 DE:             ENERGY DIFFERENCE WITH RESPECT TO THE CENTRAL POINT
                 (DE IS EXPECTED TO BE POSITIVE FOR ALL DISPLACEMENTS)

   ATOM      MAX ABS(DGRAD)       TOTAL ENERGY (AU)  N.CYC      DE       SYM
    CENTRAL POINT             -2.047233604402E+03     0     0.0000E+00    24
    2 TE DX   3.8396E-04      -2.047233603344E+03     7     1.0582E-06     4
    2 TE DY                   GENERATED FROM A PREVIOUS LINE
    2 TE DZ                   GENERATED FROM A PREVIOUS LINE

 GCALCO - MAX INDICES DIRECT LATTICE VECTOR    14    14    14
 NO.OF VECTORS CREATED 6999 STARS  105 RMAX    85.48165 BOHR

 CAPPA:IS1  8;IS2  8;IS3  8; K PTS MONK NET  29; SYMMOPS:K SPACE  48;G SPACE  24

 TTTTTTTTTTTTTTTTTTTTTTTTTTTTTT gordsh1     TELAPSE      930.23 TCPU      920.34

 MATRIX SIZE: P(G)  312780, F(G)   24882, P(G) IRR   15649, F(G) IRR    4564
 MAX G-VECTOR INDEX FOR 1- AND 2-ELECTRON INTEGRALS 435

 TTTTTTTTTTTTTTTTTTTTTTTTTTTTTT INPUT       TELAPSE      930.23 TCPU      920.34

 THERE ARE NO SYMMETRY ALLOWED DIRECTIONS
 TTTTTTTTTTTTTTTTTTTTTTTTTTTTTT SYMM        TELAPSE      930.25 TCPU      920.37
 TTTTTTTTTTTTTTTTTTTTTTTTTTTTTT INT_SCREEN  TELAPSE      930.26 TCPU      920.37

 ATOMIC BORN CHARGE TENSOR (UNITS OF e, ELECTRON CHARGE).
 DYNAMIC CHARGE = 1/3 * TRACE .

 ATOM   1 ZN DYNAMIC CHARGE     1.979010

              1           2           3
   1     1.9790E+00  0.0000E+00  8.8233E-24
   2     8.8233E-24  1.9790E+00  0.0000E+00
   3     0.0000E+00  0.0000E+00  1.9790E+00

 ATOM   2 TE DYNAMIC CHARGE    -1.979010

              1           2           3
   1    -1.9790E+00  0.0000E+00 -8.8233E-24
   2    -8.8233E-24 -1.9790E+00  0.0000E+00
   3     0.0000E+00  0.0000E+00 -1.9790E+00

 +++ SYMMETRY ADAPTION OF VIBRATIONAL MODES +++

 SYMMETRY INFORMATION:
 K-LITTLE GROUP: CLASS TABLE, CHARACTER TABLE.
 IRREP-(DIMENSION, NO. IRREDUCIBLE SETS)
 [WARNINGS: (1) ONLY ACTIVE IRREPS ARE GENERATED AND LISTED.
            (2) ONLY RELEVANT CLASSES ARE CONSIDERED IN THE CHARACTER TABLE
            (3) SYMBOLS MAY NOT FULLY COINCIDE WITH THOSE FROM TEXT BOOKS.]

 (P, D, RP, RD, STAND FOR PAIRING, DOUBLING, REAL PAIRING AND REAL DOUBLING 
 OF THE IRREPS (SEE MANUAL))

 CLASS  | GROUP OPERATORS (SEE SYMMOPS KEYWORD)
 --------------------------------------------------------------------
 C2     |   2;   3;   4;
 C3     |   5;  11;   7;   9;   6;  12;  10;   8;
 SGD    |  13;  14;  17;  18;  23;  24;
 S4     |  15;  16;  19;  20;  21;  22;

 IRREP/CLA      E     C2     C3    SGD     S4
 --------------------------------------------
  MULTIP |      1      3      8      6      6
 --------------------------------------------
    F    |   3.00  -1.00   0.00   1.00  -1.00

 F  -(3,   2);


 BORN CHARGE VECTOR IN THE BASIS OF NORMAL MODES (UNITS OF e*M_E**(-1/2) ).
 e AND M_E ARE UNITS OF ELECTRON CHARGE AND MASS, RESPECTIVELY.

 MODE         X              Y              Z
   1    0.11354E-17    0.63459E-41    0.00000E+00
   2    0.00000E+00    0.11354E-17    0.00000E+00
   3    0.63459E-41    0.00000E+00    0.11354E-17
   4    0.00000E+00   -0.70814E-02    0.00000E+00
   5   -0.70814E-02   -0.31572E-25    0.00000E+00
   6   -0.31572E-25    0.00000E+00   -0.70814E-02

 HHHHHHHHHHHHHHHHHHHHHHHHHHHHHHHHHHHHHHHHHHHHHHHHHHHHHHHHHHHHHHHHHHHHHHHHHHHHHH
 VIBRATIONAL CONTRIBUTIONS TO THE STATIC DIELECTRIC TENSOR (OSCILLATOR
 STRENGTHS) ARE PURE NUMBERS. THEY ARE COMPUTED FOR EACH nth MODE AS:

   f_(n,ij) = 1 / (4 * pi * eps0) * 4 * pi / V * Z_(n,i) * Z_(n,j) / nu_n**2

 WHERE:
  1/(4*pi*eps0)  1 A.U. [M*L**3*T**(-4)*C**(-2)]
  V              CELL VOLUME (BOHR**3) [L**3]
  Z_(n,i)        ith COMPONENT OF BORN CHARGE VECTOR IN THE BASIS
                 OF NORMAL MODES ( e*M_E**(-1/2) ) [C*T*M**(-1/2)]
  nu_n           FREQUENCY (HARTREE) [T**(-1)]
  e, M_E         UNITS OF ELECTRON CHARGE AND MASS, RESPECTIVELY
  M, L, T, C     MASS, LENGTH, TIME, CURRENT, RESPECTIVELY

 HHHHHHHHHHHHHHHHHHHHHHHHHHHHHHHHHHHHHHHHHHHHHHHHHHHHHHHHHHHHHHHHHHHHHHHHHHHHHH

 MODE      CARTESIAN AXES SYSTEM

   4       0.00000   -0.00000    0.00000
          -0.00000    1.95011   -0.00000
           0.00000   -0.00000    0.00000

   5       1.95011    0.00000   -0.00000
           0.00000    0.00000   -0.00000
          -0.00000   -0.00000    0.00000

   6       0.00000   -0.00000    0.00000
          -0.00000    0.00000   -0.00000
           0.00000   -0.00000    1.95011

 SUM TENSOR OF THE VIBRATIONAL CONTRIBUTIONS TO THE STATIC DIELECTRIC     TENSOR

           1.95011    0.00000    0.00000
           0.00000    1.95011    0.00000
           0.00000    0.00000    1.95011

 INTEGRATED IR INTENSITIES, IN UNITS OF KM/MOL, ARE COMPUTED UNDER THE
 HYPOTHESIS OF ISOTROPIC RESPONSE (I.E. POWDER SAMPLE):

   INTENS_n = 1 / (4 * pi * eps0) * pi * N_AV / 3 / c**2 *
                             * d_n * ( Z_(n,x)**2 + Z_(n,y)**2 + Z_(n,z)**2 )
            = 0.17770712E+07 * d_n * ( Z_(n,x)**2 + Z_(n,y)**2 + Z_(n,z)**2 )

 WHERE:
  1/(4*pi*eps0)  1 A.U. [M*L**3*T**(-4)*C**(-2)]
  N_AV           AVOGADRO'S NUMBER [QM**(-1)]
  c              SPEED OF LIGHT [L*T**(-1)]
  d_n            DEGENERACY OF THE MODE
  Z_(n,x)        xth COMPONENT OF BORN CHARGE VECTOR IN THE BASIS
                 OF NORMAL MODES ( e*M_E**(-1/2) ) [C*T*M**(-1/2)]
  M,L,T,C,QM     MASS, LENGTH, TIME, CURRENT, QUANTITY OF MATTER, RESPECTIVELY

 HHHHHHHHHHHHHHHHHHHHHHHHHHHHHHHHHHHHHHHHHHHHHHHHHHHHHHHHHHHHHHHHHHHHHHHHHHHHHH
 EIGENVALUES (EIGV) OF THE MASS WEIGHTED HESSIAN MATRIX AND HARMONIC TRANSVERSE
 OPTICAL (TO) FREQUENCIES. IRREP LABELS REFER TO SYMMETRY REPRESENTATION
 ANALYSIS; A AND I INDICATE WHETHER THE MODE IS ACTIVE OR INACTIVE,
 RESPECTIVELY, FOR IR AND RAMAN; INTEGRATED IR INTENSITIES IN BRACKETS.

 CONVERSION FACTORS FOR FREQUENCIES:
      1 CM**(-1) =   0.4556335E-05 HARTREE
      1 THZ      =   0.3335641E+02 CM**(-1)

 HHHHHHHHHHHHHHHHHHHHHHHHHHHHHHHHHHHHHHHHHHHHHHHHHHHHHHHHHHHHHHHHHHHHHHHHHHHHHH

    MODES         EIGV          FREQUENCIES     IRREP  IR   INTENS    RAMAN
             (HARTREE**2)   (CM**-1)     (THZ)             (KM/MOL)
    1-   3    0.1414E-22      0.0000    0.0000  (F  )   A (     0.00)   A
    4-   6    0.8672E-06    204.3815    6.1272  (F  )   A (   267.34)   A

 <RAMAN><RAMAN><RAMAN><RAMAN><RAMAN><RAMAN><RAMAN><RAMAN><RAMAN><RAMAN><RAMAN>
 <RAMAN><RAMAN><RAMAN><RAMAN><RAMAN><RAMAN><RAMAN><RAMAN><RAMAN><RAMAN><RAMAN>

 RAMAN INTENSITIES UNDER PLACZECK APPROXIMATION ARE COMPUTED AS:

  DIRECTIONAL (SINGLE CRYSTAL) :

     I_ij(n)= VOLUME*X(n,i,j)**2

  ISOTROPIC (POLYCRYSTALLINE POWDERS, GASES) :

     G_0(n) = 1/3*(SUM_i X(n,i,i))**2
     G_1(n) = 1/2*SUM_i,j (X(n,i,j)+X(n,j,i))**2
     G_2(n) = 1/3*SUM_i,j (X(n,i,i)-X(n,j,j))**2

     I_par(n)  = VOLUME*( 15*G_0(n) + 6*(G_1(n) + G_2(n)) )
     I_perp(n) = VOLUME*9/2*( G_1(n) + G_2(n) )
     I_tot(n)  = I_par(n) + I_perp(n)

  WHERE X(n,i,j) IS THE i,j-th COMPONENT OF THE RAMAN TENSOR
  IN THE BASIS OF NORMAL MODE n

  ALL VALUES ARE NORMALIZED TO THE MOST INTENSE PEAK


  INTENSITIES HAVE BEEN CALCULATED AT 
  TEMPERATURE                  :    298.0 K
  FREQUENCY OF INCOMING LASER  :    514.0 NM


 REFERENCES TO BE QUOTED FOR RAMAN INTENSITIES:

 L.MASCHIO, B.KIRTMAN, M.RERAT, R.ORLANDO and R.DOVESI, JCP 139, 164101 (2013)
 L.MASCHIO, B.KIRTMAN, M.RERAT, R.ORLANDO and R.DOVESI, JCP 139, 164102 (2013)

  --
  POLYCRYSTALLINE ISOTROPIC INTENSITIES (ARBITRARY UNITS)

    MODES    FREQUENCIES           I_tot     I_par    I_perp
  ----------------------------------------------------------------
    4-   6      204.3815 (F  )   1000.00    571.43    428.57

  --
  SINGLE CRYSTAL DIRECTIONAL INTENSITIES (ARBITRARY UNITS)

    MODES    FREQUENCIES          I_xx    I_xy    I_xz    I_yy    I_yz    I_zz
  ----------------------------------------------------------------------------
    4-   6      204.3815 (F  )    0.00 1000.00  999.72    0.00  999.16    0.00

 <RAMAN><RAMAN><RAMAN><RAMAN><RAMAN><RAMAN><RAMAN><RAMAN><RAMAN><RAMAN><RAMAN>
 <RAMAN><RAMAN><RAMAN><RAMAN><RAMAN><RAMAN><RAMAN><RAMAN><RAMAN><RAMAN><RAMAN>


 NORMAL MODES NORMALIZED TO CLASSICAL AMPLITUDES (IN BOHR)

 FREQ(CM**-1)      0.00      0.00      0.00    204.38    204.38    204.38

 AT.   1 ZN X    -0.0718    0.0000    0.0000    0.0000   -0.0786    0.0000
            Y     0.0000   -0.0718    0.0000   -0.0786    0.0000    0.0000
            Z     0.0000    0.0000   -0.0718    0.0000    0.0000   -0.0786
 AT.   2 TE X    -0.0718    0.0000    0.0000    0.0000    0.0387    0.0000
            Y     0.0000   -0.0718    0.0000    0.0387    0.0000    0.0000
            Z     0.0000    0.0000   -0.0718    0.0000    0.0000    0.0387

 *******************************************************************************

 VIBRATIONAL TEMPERATURES (K) [MODE NUMBER;IRREP]

 TO MODES
   294.1 [   4;F  ]   294.1 [   5;F  ]   294.1 [   6;F  ]

 *******************************************************************************

 HARMONIC VIBRATIONAL CONTRIBUTIONS TO THERMODYNAMIC FUNCTIONS AT GIVEN
 TEMPERATURE AND PRESSURE:

 (EL = ELECTRONIC ENERGY
  E0 = ZERO-POINT ENERGY
  ET = THERMAL CONTRIBUTION TO THE VIBRATIONAL ENERGY
  PV = PRESSURE * VOLUME
  TS = TEMPERATURE * ENTROPY)

                          AU/CELL             EV/CELL                 KJ/MOL
 EL            :   -2047.233604402441  -55708.058518758735    -5375011.07088217
 E0            :       0.001396846034       0.038010112984           3.66741875


 *******************************************************************************

 THERMODYNAMIC FUNCTIONS WITH VIBRATIONAL CONTRIBUTIONS

 AT (T =  298.15 K, P =   0.10132500E+00 MPA):

                          AU/CELL             EV/CELL                 KJ/MOL
 ET            :       0.001661686753       0.045216795328           4.36275796
 PV            :       0.000001283322       0.000034920977           0.00336936
 TS            :       0.002983777627       0.081192716993           7.83390706
 ET+PV-TS      :      -0.001320807552      -0.035941000687          -3.46777974
 EL+E0+ET+PV-TS:   -2047.233528363958  -55708.056449646436    -5375010.87124317

 OTHER THERMODYNAMIC FUNCTIONS:

                      mHARTREE/(CELL*K)     mEV/(CELL*K)              J/(MOL*K)
 ENTROPY       :       0.010007639199       0.272321707169          26.27505301
 HEAT CAPACITY :       0.008766377776       0.238545266700          23.01612161

 *******************************************************************************
 TTTTTTTTTTTTTTTTTTTTTTTTTTTTTT END         TELAPSE      930.27 TCPU      920.38
 EEEEEEEEEE TERMINATION  DATE 05 09 2023 TIME 18:28:17.9
