         256 PROCESSORS WORKING

         
 *******************************************************************************
 *                                                                             *
 *                               CRYSTAL23                                     *
 *                      public : 1.0.1 - October 2022                          *
 *                       HTTP://WWW.CRYSTAL.UNITO.IT                           *
 *                                                                             *
 *                              MAIN AUTHORS                                   *
 *                                                                             *
 *  R. DOVESI(1,11), V.R. SAUNDERS(2), C. ROETTI(1,11), R. ORLANDO(1,11),      *
 *  C.M. ZICOVICH-WILSON(1,3), F. PASCALE(4), B. CIVALLERI(1,11),              *
 *  K. DOLL(5), N.M. HARRISON(6), I.J. BUSH(7), Ph. D'ARCO(8),                 *
 *  M. LLUNELL(9), M. CAUSA'(10), Y. NOEL(8), L. MASCHIO(1,11), A. ERBA(1,11)  *
 *  M. RE'RAT(14), S. CASASSA(1,11), B.G. SEARLE(2), J.K. DESMARAIS(1)         *
 *                                                                             *
 *        CONTRIBUTIONS TO THE CODE HAVE ALSO BEEN GIVEN BY                    *
 *                                                                             *
 *  M. FERRABONE(1,11), M. DE LA PIERRE(1,11), M. FERRERO(1,11),               *
 *  J. BAIMA(1,11), E. ALBANESE(1,11), M.F. PEINTINGER(12), R. BAST(13),       *
 *  B. KIRTMAN(15), V. LACIVITA(1,11), R. DEMICHELIS(1,16)                     *
 *  G. BRANDEBURG(17), S. SALUSTRO(1,11), G. SANSONE(1,11)                     *
 *  M.T. RUGGIERO(18), L.E. DAGA(1), L. DONA'(1), A. COSSARD(1)                *
 *                                                                             *
 * (1) THEORETICAL CHEMISTRY GROUP - UNIVERSITA' DI TORINO - TORINO (ITALY)    *
 * (2) SCIENTIFIC COMPUTING DEPARTMENT - STFC DARESBURY (UK)                   *
 * (3) UNIVERSIDAD AUTONOMA DEL ESTADO DE MORELOS - CUERNAVACA (MEXICO)        *
 * (4) UNIVERSITE' DE LORRAINE - NANCY (FRANCE)                                *
 * (5) UNIVERSITAET STUTTGART- STUTTGART (GERMANY)                             *
 * (6) IMPERIAL COLLEGE - LONDON (UK)                                          *
 * (7) SCIENTIFIC COMPUTING DEPARTMENT - STFC RAL (UK)                         *
 * (8) UPMC - SORBONNE UNIVERSITES - PARIS (FRANCE)                            *
 * (9) UNIVERSIDAD DE BARCELONA - BARCELONA (SPAIN)                            *
 *(10) UNIVERSITA' DI NAPOLI "FEDERICO II" - NAPOLI (ITALY)                    *
 *(11) NIS - NANOSTRUCTURED INTERFACES AND SURFACES - TORINO (ITALY)           *
 *(12) MPI FUER CHEMISCHE ENERGIEKONVERSION - MUELHEIM AN DER RUHR (GERMANY)   *
 *(13) UNIVERSITY OF TROMSO - TROMSO (NORWAY)                                  *
 *(14) UNIVERSITE' DE PAU ET DES PAYS DE L'ADOUR - PAU (FRANCE)                *
 *(15) UNIVERSITY OF CALIFORNIA SANTA BARBARA - SANTA BARBARA (USA)            *
 *(16) CURTIN UNIVERSITY - PERTH (AUSTRALIA)                                   *
 *(17) UNIVERSITY COLLEGE LONDON - LONDON (UK)                                 *
 *(18) UNIVERSITY OF VERMONT - BURLINGTON (USA)                                *
 *                                                                             *
 *******************************************************************************
 EEEEEEEEEE STARTING  DATE 05 09 2023 TIME 18:12:10.6
 ICSD_CollCode136503.cif                                                         

 CRYSTAL CALCULATION
 (INPUT ACCORDING TO THE INTERNATIONAL TABLES FOR X-RAY CRYSTALLOGRAPHY)
 CRYSTAL FAMILY                       :  CUBIC       
 CRYSTAL CLASS  (GROTH - 1921)        :  CUBIC HEXAKISTETRAHEDRAL             

 SPACE GROUP (NONCENTROSYMMETRIC)     :  F -4 3 M        

 LATTICE PARAMETERS  (ANGSTROMS AND DEGREES) - CONVENTIONAL CELL
        A           B           C        ALPHA        BETA       GAMMA
     5.40658     5.40658     5.40658    90.00000    90.00000    90.00000


 NUMBER OF IRREDUCIBLE ATOMS IN THE CONVENTIONAL CELL:    2

 INPUT COORDINATES

 ATOM AT. N.              COORDINATES
   1  30     7.500000000000E-01  7.500000000000E-01  2.500000000000E-01
   2  16     0.000000000000E+00  0.000000000000E+00  0.000000000000E+00

 *******************************************************************************

 << INFORMATION >>: FROM NOW ON, ALL COORDINATES REFER TO THE PRIMITIVE CELL

 *******************************************************************************

 LATTICE PARAMETERS  (ANGSTROMS AND DEGREES) - PRIMITIVE CELL
       A          B          C        ALPHA      BETA     GAMMA        VOLUME
    3.82303    3.82303    3.82303    60.00000  60.00000  60.00000     39.510080

 COORDINATES OF THE EQUIVALENT ATOMS (FRACTIONAL UNITS)

 N. ATOM EQUIV AT. N.          X                  Y                  Z

   1   1   1   30 ZN    2.50000000000E-01  2.50000000000E-01  2.50000000000E-01

   2   2   1   16 S     0.00000000000E+00  0.00000000000E+00  0.00000000000E+00

 NUMBER OF SYMMETRY OPERATORS         :   24
 *******************************************************************************
 * GEOMETRY EDITING - INPUT COORDINATES ARE GIVEN IN ANGSTROM         
 *******************************************************************************

 GEOMETRY NOW FULLY CONSISTENT WITH THE GROUP

 FRQFRQFRQFRQFRQFRQFRQFRQFRQFRQFRQFRQFRQFRQFRQFRQFRQFRQFRQFRQFRQFRQFRQFRQFRQFRQ

                       FREQUENCY CALCULATION

 OPTIMIZATION PERFORMED BEFORE FREQUENCIES CALCULATION
 *******************************************************************************
 INFORMATION **** NEW DEFAULT **** FINALRUN 4 FOR GEOMETRY OPTIMIZATIONS
 INFORMATION **** NEW DEFAULT **** OPTGEOM OPTIMIZES ATOMIC COORDINATES ONLY
 INFORMATION **** NEW DEFAULT **** TOL. ON ATOMIC DISP TO REDEFINE REF. GEOMETRY: 0.8 Angs
 INFORMATION **** NEW DEFAULT **** N POINTS TO REDEFINE REF. GEOMETRY: N OF OPT DEGS OF FREEDOM
 INFORMATION **** NEW DEFAULT **** TOL. ON ENERGY TO REDEFINE REF. GEOMETRY: 10**-3*(5*N. ATOMS)
 INFORMATION **** FULLOPTG **** FULL OPTIMIZATION (ATOMS AND CELL PARAMETERS)

 IMPORTANT INFORMATION:
 THE COORDINATE SYSTEM ADOPTED IN THE OPTIMIZATION IS NOT IN
 GENERAL HOMOGENEOUS UNITS. FOR THIS REASON THE GRADIENT AND 
 HESSIAN MATRIX IN TERMS OF THIS SYSTEM ARE GIVEN WITHOUT
 UNITS. FOR MORE DETAILS SEE THE MANUAL.

 *******************************************************************************
 COMBINED CELL/ATOM OPTIMIZATION CONTROL

 INITIAL TRUST RADIUS         0.50000 MAXIMUM TRUST RADIUS               0.50000
 MAXIMUM GRADIENT COMPONENT   0.00005 MAXIMUM DISPLACEMENT COMPONENT     0.00018
 R.M.S. OF GRADIENT COMPONENT 0.00003 R.M.S. OF DISPLACEMENT COMPONENTS  0.00012
 THRESHOLD ON ENERGY CHANGE 0.100E-06 EXTRAPOLATING POLYNOMIAL ORDER           2
 MAXIMUM ALLOWED NUMBER OF STEPS   -1 SORTING OF ENERGY POINTS:               NO
 ANALYTICAL  GRADIENT                 HESSIAN UPDATING                      BFGS
 STEP SIZE NUMERICAL GRADIENT 0.00100
 INITIAL HESSIAN MATRIX: SCHLEGEL MODEL 2
 *******************************************************************************

 INFORMATION **** INPFREQ **** IR INTENSITIES EVALUATED THROUGH CPHF APPROACH
 INFORMATION **** INPFREQ **** NEW DEFAULT - IMPOSING ECKART CONDITIONS TO THE HESSIAN

 GCALCO - MAX INDICES DIRECT LATTICE VECTOR    14    14    14
 NO.OF VECTORS CREATED 6999 STARS  105 RMAX    76.45669 BOHR

 GEOMETRY FOR WAVE FUNCTION - DIMENSIONALITY OF THE SYSTEM    3
 (NON PERIODIC DIRECTION: LATTICE PARAMETER FORMALLY SET TO 500)
 *******************************************************************************
 LATTICE PARAMETERS (ANGSTROMS AND DEGREES) - BOHR = 0.5291772083 ANGSTROM
 PRIMITIVE CELL - CENTRING CODE 5/0 VOLUME=    39.510080 - DENSITY  4.031 g/cm^3
         A              B              C           ALPHA      BETA       GAMMA 
     3.82302938     3.82302938     3.82302938    60.000000  60.000000  60.000000
 *******************************************************************************
 ATOMS IN THE ASYMMETRIC UNIT    2 - ATOMS IN THE UNIT CELL:    2
     ATOM                 X/A                 Y/B                 Z/C    
 *******************************************************************************
      1 T  30 ZN    2.500000000000E-01  2.500000000000E-01  2.500000000000E-01
      2 T  16 S     0.000000000000E+00  0.000000000000E+00  0.000000000000E+00

 TRANSFORMATION MATRIX PRIMITIVE-CRYSTALLOGRAPHIC CELL
 -1.0000  1.0000  1.0000  1.0000 -1.0000  1.0000  1.0000  1.0000 -1.0000

 *******************************************************************************
 CRYSTALLOGRAPHIC CELL (VOLUME=        158.04032009)
         A              B              C           ALPHA      BETA       GAMMA 
     5.40658000     5.40658000     5.40658000    90.000000  90.000000  90.000000

 COORDINATES IN THE CRYSTALLOGRAPHIC CELL
     ATOM                 X/A                 Y/B                 Z/C    
 *******************************************************************************
      1 T  30 ZN    2.500000000000E-01 -2.500000000000E-01 -2.500000000000E-01
      2 T  16 S     0.000000000000E+00  0.000000000000E+00  0.000000000000E+00

 T = ATOM BELONGING TO THE ASYMMETRIC UNIT

 ****   24 SYMMOPS - TRANSLATORS IN FRACTIONAL UNITS
 **** MATRICES AND TRANSLATORS IN THE CRYSTALLOGRAPHIC REFERENCE FRAME
   V INV                    ROTATION MATRICES                   TRANSLATORS
   1   1  1.00  0.00  0.00  0.00  1.00  0.00  0.00  0.00  1.00  0.00  0.00  0.00
   2   2  0.00  1.00 -0.00  1.00  0.00  0.00 -1.00 -1.00 -1.00  0.00  0.00  0.00
   3   3 -1.00 -1.00 -1.00  0.00 -0.00  1.00 -0.00  1.00 -0.00  0.00  0.00  0.00
   4   4 -0.00 -0.00  1.00 -1.00 -1.00 -1.00  1.00  0.00  0.00  0.00  0.00  0.00
   5   6  0.00 -0.00  1.00  1.00  0.00  0.00  0.00  1.00 -0.00  0.00  0.00  0.00
   6   5  0.00  1.00 -0.00  0.00 -0.00  1.00  1.00  0.00  0.00  0.00  0.00  0.00
   7   8  1.00  0.00  0.00 -0.00 -0.00  1.00 -1.00 -1.00 -1.00  0.00  0.00  0.00
   8   7  1.00  0.00  0.00 -1.00 -1.00 -1.00 -0.00  1.00 -0.00  0.00  0.00  0.00
   9  10 -1.00 -1.00 -1.00  0.00  1.00 -0.00  1.00  0.00  0.00  0.00  0.00  0.00
  10   9 -0.00 -0.00  1.00 -0.00  1.00 -0.00 -1.00 -1.00 -1.00  0.00  0.00  0.00
  11  12 -0.00  1.00 -0.00 -1.00 -1.00 -1.00 -0.00 -0.00  1.00  0.00  0.00  0.00
  12  11 -1.00 -1.00 -1.00  1.00  0.00  0.00  0.00 -0.00  1.00  0.00  0.00  0.00
  13  13  0.00  1.00 -0.00  1.00  0.00  0.00  0.00 -0.00  1.00  0.00  0.00  0.00
  14  14  1.00  0.00  0.00 -0.00  1.00 -0.00 -1.00 -1.00 -1.00  0.00  0.00  0.00
  15  16 -0.00 -0.00  1.00 -1.00 -1.00 -1.00 -0.00  1.00 -0.00  0.00  0.00  0.00
  16  15 -1.00 -1.00 -1.00  0.00 -0.00  1.00  1.00  0.00  0.00  0.00  0.00  0.00
  17  17  1.00  0.00  0.00 -0.00 -0.00  1.00  0.00  1.00 -0.00  0.00  0.00  0.00
  18  18  0.00 -0.00  1.00  0.00  1.00 -0.00  1.00  0.00  0.00  0.00  0.00  0.00
  19  21  0.00 -0.00  1.00  1.00  0.00  0.00 -1.00 -1.00 -1.00  0.00  0.00  0.00
  20  22 -1.00 -1.00 -1.00  1.00  0.00  0.00  0.00  1.00 -0.00  0.00  0.00  0.00
  21  19 -0.00  1.00 -0.00 -1.00 -1.00 -1.00  1.00  0.00  0.00  0.00  0.00  0.00
  22  20 -0.00  1.00 -0.00 -0.00 -0.00  1.00 -1.00 -1.00 -1.00  0.00  0.00  0.00
  23  23 -1.00 -1.00 -1.00  0.00  1.00 -0.00 -0.00 -0.00  1.00  0.00  0.00  0.00
  24  24  1.00  0.00  0.00 -1.00 -1.00 -1.00 -0.00 -0.00  1.00  0.00  0.00  0.00

 DIRECT LATTICE VECTORS CARTESIAN COMPONENTS (ANGSTROM)
          X                    Y                    Z
   0.000000000000E+00   0.270329000000E+01   0.270329000000E+01
   0.270329000000E+01   0.000000000000E+00   0.270329000000E+01
   0.270329000000E+01   0.270329000000E+01   0.000000000000E+00


 CARTESIAN COORDINATES - PRIMITIVE CELL
 *******************************************************************************
 *      ATOM          X(ANGSTROM)         Y(ANGSTROM)         Z(ANGSTROM)
 *******************************************************************************
    1    30 ZN    1.351645000000E+00 -1.351645000000E+00 -1.351645000000E+00
    2    16 S     0.000000000000E+00  0.000000000000E+00  0.000000000000E+00

 *******************************************************************************
 LOCAL ATOMIC FUNCTIONS BASIS SET
 *******************************************************************************
   ATOM   X(AU)   Y(AU)   Z(AU)  N. TYPE  EXPONENT  S COEF   P COEF   D/F/G COEF
 *******************************************************************************
   1 ZN   2.554  -2.554  -2.554
                                  1 S  
                                         4.059E+05 2.244E-04 0.000E+00 0.000E+00
                                         6.085E+04 1.740E-03 0.000E+00 0.000E+00
                                         1.385E+04 9.051E-03 0.000E+00 0.000E+00
                                         3.920E+03 3.682E-02 0.000E+00 0.000E+00
                                         1.276E+03 1.200E-01 0.000E+00 0.000E+00
                                         4.587E+02 2.858E-01 0.000E+00 0.000E+00
                                         1.783E+02 4.109E-01 0.000E+00 0.000E+00
                                         7.061E+01 2.182E-01 0.000E+00 0.000E+00
                                  2 S  
                                         4.439E+02-2.493E-02 0.000E+00 0.000E+00
                                         1.376E+02-1.182E-01 0.000E+00 0.000E+00
                                         2.227E+01 5.537E-01 0.000E+00 0.000E+00
                                         9.522E+00 5.263E-01 0.000E+00 0.000E+00
                                  3 S  
                                         1.487E+01-2.293E-01 0.000E+00 0.000E+00
                                         2.465E+00 7.114E-01 0.000E+00 0.000E+00
                                  4 S  
                                         1.011E+00 1.000E+00 0.000E+00 0.000E+00
                                  5 S  
                                         3.230E-01 1.000E+00 0.000E+00 0.000E+00
                                  6 S  
                                         1.517E-01 1.000E+00 0.000E+00 0.000E+00
                           7-     9 P  
                                         2.205E+03 0.000E+00 2.336E-03 0.000E+00
                                         5.224E+02 0.000E+00 1.903E-02 0.000E+00
                                         1.677E+02 0.000E+00 8.996E-02 0.000E+00
                                         6.267E+01 0.000E+00 2.611E-01 0.000E+00
                                         2.511E+01 0.000E+00 4.235E-01 0.000E+00
                                         1.023E+01 0.000E+00 2.462E-01 0.000E+00
                          10-    12 P  
                                         4.071E+01 0.000E+00-3.003E-02 0.000E+00
                                         5.625E+00 0.000E+00 5.558E-01 0.000E+00
                                         2.228E+00 0.000E+00 9.558E-01 0.000E+00
                          13-    15 P  
                                         1.160E+00 0.000E+00 1.000E+00 0.000E+00
                          16-    18 P  
                                         2.625E-01 0.000E+00 1.000E+00 0.000E+00
                          19-    23 D  
                                         8.855E+01 0.000E+00 0.000E+00 1.273E-02
                                         2.572E+01 0.000E+00 0.000E+00 7.939E-02
                                         9.128E+00 0.000E+00 0.000E+00 2.449E-01
                                         3.431E+00 0.000E+00 0.000E+00 4.039E-01
                          24-    28 D  
                                         1.186E+00 0.000E+00 0.000E+00 1.000E+00
                          29-    33 D  
                                         3.309E-01 0.000E+00 0.000E+00 1.000E+00
                          34-    40 F  
                                         2.614E+00 0.000E+00 0.000E+00 1.000E+00
   2 S    0.000   0.000   0.000
                                 41 S  
                                         6.070E+04 5.470E-04 0.000E+00 0.000E+00
                                         9.103E+03 4.230E-03 0.000E+00 0.000E+00
                                         2.071E+03 2.175E-02 0.000E+00 0.000E+00
                                         5.860E+02 8.510E-02 0.000E+00 0.000E+00
                                         1.906E+02 2.480E-01 0.000E+00 0.000E+00
                                         6.763E+01 4.670E-01 0.000E+00 0.000E+00
                                         2.513E+01 3.643E-01 0.000E+00 0.000E+00
                                 42 S  
                                         1.126E+02 2.167E-02 0.000E+00 0.000E+00
                                         3.480E+01 9.360E-02 0.000E+00 0.000E+00
                                         6.512E+00-2.607E-01 0.000E+00 0.000E+00
                                 43 S  
                                         3.240E+00 1.284E+00 0.000E+00 0.000E+00
                                         1.548E+00 6.604E-01 0.000E+00 0.000E+00
                                 44 S  
                                         4.487E-01 1.000E+00 0.000E+00 0.000E+00
                                 45 S  
                                         1.553E-01 1.000E+00 0.000E+00 0.000E+00
                          46-    48 P  
                                         5.644E+02 0.000E+00 2.480E-03 0.000E+00
                                         1.334E+02 0.000E+00 1.968E-02 0.000E+00
                                         4.247E+01 0.000E+00 8.998E-02 0.000E+00
                                         1.562E+01 0.000E+00 2.571E-01 0.000E+00
                                         6.109E+00 0.000E+00 4.352E-01 0.000E+00
                          49-    51 P  
                                         2.036E+00 0.000E+00 1.000E+00 0.000E+00
                          52-    54 P  
                                         4.338E-01 0.000E+00 1.000E+00 0.000E+00
                          55-    57 P  
                                         1.305E-01 0.000E+00 1.000E+00 0.000E+00
                          58-    62 D  
                                         4.107E-01 0.000E+00 0.000E+00 1.000E+00
 INFORMATION **** SET_MPP **** PCRYSTAL CALCULATION
 INFORMATION **** READM2 **** NEW DEFAULT: FOCK/KS MATRIX MIXING SET TO 30 %
 INFORMATION **** READM2 **** NEW DEFAULT: FULL DIRECT SCF MODE
 INFORMATION **** READM2 **** NEW DEFAULT: COULOMB BIPOLAR BUFFER SET TO 32 Mb
 INFORMATION **** READM2 **** NEW DEFAULT: EXCHANGE BIPOLAR BUFFER SET TO 32 Mb

 *******************************************************************************
 NEW DEFAULT: DFT INTEGRATION GRID INCREASED TO XLGRID
 NEW DEFAULT: DIIS ACCELERATOR ACTIVE
 USE KEYWORD NODIIS TO TURN IT OFF
 *******************************************************************************

 INFORMATION **** RDDFTP **** MAX N. OF POINTS ALLOWED IN A BATCH FOR NUMERICAL INTEGRATION         200
 INFORMATION **** TOLINTEG **** COULOMB AND EXCHANGE SERIES TOLERANCES MODIFIED
 INFORMATION **** TOLDEE **** SCF TOL ON TOTAL ENERGY SET TO          11
 INFORMATION **** EXCHSIZE **** EXCHANGE BIPOLAR BUFFER SIZE SET TO    12012489
 INFORMATION **** MAXCYCLE **** MAX NUMBER OF SCF CYCLES SET TO         150
 *******************************************************************************
 N. OF ATOMS PER CELL         2  COULOMB OVERLAP TOL         (T1) 10**   -7
 NUMBER OF SHELLS            24  COULOMB PENETRATION TOL     (T2) 10**   -7
 NUMBER OF AO                62  EXCHANGE OVERLAP TOL        (T3) 10**   -7
 N. OF ELECTRONS PER CELL    46  EXCHANGE PSEUDO OVP (F(G))  (T4) 10**   -9
 CORE ELECTRONS PER CELL     28  EXCHANGE PSEUDO OVP (P(G))  (T5) 10**  -30
 N. OF SYMMETRY OPERATORS    24  POLE ORDER IN MONO ZONE                  4
 *******************************************************************************
 TYPE OF CALCULATION :  RESTRICTED CLOSED SHELL
 KOHN-SHAM HAMILTONIAN

 (EXCHANGE)[CORRELATION] FUNCTIONAL:(PERDEW-BURKE-ERNZERHOF)[PERDEW-BURKE-ERNZERHOF]


 HYBRID EXCHANGE - PERCENTAGE OF FOCK EXCHANGE    25.0000

 CAPPA:IS1  8;IS2  8;IS3  8; K PTS MONK NET  29; SYMMOPS:K SPACE  48;G SPACE  24

 *******************************************************************************
 MAX NUMBER OF SCF CYCLES     150  CONVERGENCE ON DELTAP        10**-21
 WEIGHT OF F(I) IN F(I+1)      30% CONVERGENCE ON ENERGY        10**-11
 SHRINK. FACT.(MONKH.)    8  8  8  NUMBER OF K POINTS IN THE IBZ     29
 SHRINKING FACTOR(GILAT NET)    8  NUMBER OF K POINTS(GILAT NET)     29
 *******************************************************************************
 *** K POINTS COORDINATES (OBLIQUE COORDINATES IN UNITS OF IS =  8)
   1-R(  0  0  0)   2-C(  1  0  0)   3-C(  2  0  0)   4-C(  3  0  0)
   5-R(  4  0  0)   6-C(  1  1  0)   7-C(  2  1  0)   8-C(  3  1  0)
   9-C(  4  1  0)  10-C(  5  1  0)  11-C(  6  1  0)  12-C(  7  1  0)
  13-C(  2  2  0)  14-C(  3  2  0)  15-C(  4  2  0)  16-C(  5  2  0)
  17-C(  6  2  0)  18-C(  3  3  0)  19-C(  4  3  0)  20-C(  5  3  0)
  21-R(  4  4  0)  22-C(  3  2  1)  23-C(  4  2  1)  24-C(  5  2  1)
  25-C(  4  3  1)  26-C(  5  3  1)  27-C(  6  3  1)  28-C(  5  4  1)
  29-C(  6  4  2)

 DIRECT LATTICE VECTORS COMPON. (A.U.)     RECIP. LATTICE VECTORS COMPON. (A.U.) 
        X            Y            Z              X            Y            Z
    0.0000000    5.1084778    5.1084778     -0.6149763    0.6149763    0.6149763
    5.1084778    0.0000000    5.1084778      0.6149763   -0.6149763    0.6149763
    5.1084778    5.1084778    0.0000000      0.6149763    0.6149763   -0.6149763

 DISK SPACE FOR EIGENVECTORS (FTN 10)      211420 REALS

 SYMMETRY ADAPTION OF THE BLOCH FUNCTIONS ENABLED
 TTTTTTTTTTTTTTTTTTTTTTTTTTTTTT gordsh1     TELAPSE        4.66 TCPU        2.72

 MATRIX SIZE: P(G)  264708, F(G)   20347, P(G) IRR   12632, F(G) IRR    3396
 MAX G-VECTOR INDEX FOR 1- AND 2-ELECTRON INTEGRALS 677

 TTTTTTTTTTTTTTTTTTTTTTTTTTTTTT INPUT       TELAPSE        4.66 TCPU        2.72

 NEIGHBORS OF THE NON-EQUIVALENT ATOMS

 N = NUMBER OF NEIGHBORS AT DISTANCE R
    ATOM  N     R/ANG      R/AU   NEIGHBORS (ATOM LABELS AND CELL INDICES)
   1 ZN   4     2.3411     4.4241    2 S    0 0 0    2 S   -1 0 0    2 S   -1 0 1
                                     2 S   -1 1 0
   1 ZN  12     3.8230     7.2245    1 ZN  -1 0 0    1 ZN   1 0 0    1 ZN  -1 0 1
                                     1 ZN   1 0-1    1 ZN  -1 1 0    1 ZN   1-1 0
                                     1 ZN   0-1 0    1 ZN   0 1 0    1 ZN   0-1 1
                                     1 ZN   0 1-1    1 ZN   0 0-1    1 ZN   0 0 1
   1 ZN  12     4.4829     8.4715    2 S    0 1 0    2 S    0-1 0    2 S    0 1-1
                                     2 S    0-1 1    2 S    0 0 1    2 S    0 0-1
                                     2 S   -1-1 1    2 S   -1 1-1    2 S   -1 1 1
                                     2 S   -2 0 1    2 S   -2 1 0    2 S   -2 1 1
   1 ZN   6     5.4066    10.2170    1 ZN  -1-1 1    1 ZN   1 1-1    1 ZN  -1 1-1
                                     1 ZN   1-1 1    1 ZN  -1 1 1    1 ZN   1-1-1
   1 ZN  12     5.8917    11.1337    2 S    1 0 0    2 S    1 0-1    2 S    1-1 0
                                     2 S   -1-1 0    2 S   -1-1 2    2 S   -1 0-1
                                     2 S   -1 0 2    2 S   -1 2-1    2 S   -1 2 0
                                     2 S   -2 0 0    2 S   -2 0 2    2 S   -2 2 0
   1 ZN  24     6.6217    12.5132    1 ZN  -2 0 1    1 ZN   2 0-1    1 ZN  -2 1 0
                                     1 ZN   2-1 0    1 ZN  -2 1 1    1 ZN   2-1-1
                                     1 ZN  -1-1 0    1 ZN   1 1 0    1 ZN  -1-1 2
                                     1 ZN   1 1-2    1 ZN  -1 0-1    1 ZN   1 0 1
                                     1 ZN  -1 0 2    1 ZN   1 0-2    1 ZN  -1 2-1
                                     1 ZN   1-2 1    1 ZN  -1 2 0    1 ZN   1-2 0
                                     1 ZN   0-2 1    1 ZN   0 2-1    1 ZN   0-1-1
                                     1 ZN   0 1 1    1 ZN   0-1 2    1 ZN   0 1-2

   2 S    4     2.3411     4.4241    1 ZN   0 0 0    1 ZN   1 0 0    1 ZN   1 0-1
                                     1 ZN   1-1 0
   2 S   12     3.8230     7.2245    2 S   -1 0 0    2 S    1 0 0    2 S   -1 0 1
                                     2 S    1 0-1    2 S   -1 1 0    2 S    1-1 0
                                     2 S    0-1 0    2 S    0 1 0    2 S    0-1 1
                                     2 S    0 1-1    2 S    0 0-1    2 S    0 0 1
   2 S   12     4.4829     8.4715    1 ZN   0-1 0    1 ZN   0 1 0    1 ZN   0-1 1
                                     1 ZN   0 1-1    1 ZN   0 0-1    1 ZN   0 0 1
                                     1 ZN   1 1-1    1 ZN   1-1 1    1 ZN   1-1-1
                                     1 ZN   2 0-1    1 ZN   2-1 0    1 ZN   2-1-1
   2 S    6     5.4066    10.2170    2 S   -1-1 1    2 S    1 1-1    2 S   -1 1-1
                                     2 S    1-1 1    2 S   -1 1 1    2 S    1-1-1
   2 S   12     5.8917    11.1337    1 ZN  -1 0 0    1 ZN  -1 0 1    1 ZN  -1 1 0
                                     1 ZN   1 1 0    1 ZN   1 1-2    1 ZN   1 0 1
                                     1 ZN   1 0-2    1 ZN   1-2 1    1 ZN   1-2 0
                                     1 ZN   2 0 0    1 ZN   2 0-2    1 ZN   2-2 0
   2 S   24     6.6217    12.5132    2 S   -2 0 1    2 S    2 0-1    2 S   -2 1 0
                                     2 S    2-1 0    2 S   -2 1 1    2 S    2-1-1
                                     2 S   -1-1 0    2 S    1 1 0    2 S   -1-1 2
                                     2 S    1 1-2    2 S   -1 0-1    2 S    1 0 1
                                     2 S   -1 0 2    2 S    1 0-2    2 S   -1 2-1
                                     2 S    1-2 1    2 S   -1 2 0    2 S    1-2 0
                                     2 S    0-2 1    2 S    0 2-1    2 S    0-1-1
                                     2 S    0 1 1    2 S    0-1 2    2 S    0 1-2


 SYMMETRY ALLOWED ELASTIC DISTORTION 1
  0.5773503  0.0000000  0.0000000
  0.0000000  0.5773503  0.0000000
  0.0000000  0.0000000  0.5773503

 THERE ARE NO SYMMETRY ALLOWED DIRECTIONS
 WARNING **** INT_SCREEN **** NO DEGREES OF FREEDOM TO OPTIMIZE.
 CONTINUING WITH FREQUENCIES CALCULATION

 WARNING **** INT_SCREEN **** CELL PARAMETERS OPTIMIZATION ONLY
 TTTTTTTTTTTTTTTTTTTTTTTTTTTTTT SYMM        TELAPSE        4.68 TCPU        2.74
 TTTTTTTTTTTTTTTTTTTTTTTTTTTTTT INT_SCREEN  TELAPSE        4.69 TCPU        2.75

 *******************************************************************************
 *                             OPTIMIZATION STARTS                             *
 *******************************************************************************
 RECLASIFICATION OF INDICES FOR INTEGRAL CALC ACCORDING TO DIFFERENT CRITERIA:
           FIXDELTE                  FIXDELTX              FIXDELTN
          0.10000000E-01           0.80000000                 10
 *******************************************************************************

 *******************************************************************************
 CELL OPTIMIZATION - POINT    1

 DFT PARAMETERS

     ATOM       ELECTRONS   NET CHARGE   R(ANGSTROM)
   1  30  ZN     30.0000      0.0000     1.37000000
   2  16  S      16.0000      0.0000     1.04000000

 SIZE OF GRID=       5678
 TTTTTTTTTTTTTTTTTTTTTTTTTTTTTT MAKE_GRID2  TELAPSE        4.98 TCPU        3.03
 BECKE WEIGHT FUNCTION
 RADSAFE =     2.00
 TOLERANCES - DENSITY:10**- 6; POTENTIAL:10**- 9; GRID WGT:10**-14

 RADIAL INTEGRATION  - INTERVALS (POINTS,UPPER LIMIT):            1( 99,  4.0*R)

 ANGULAR INTEGRATION - INTERVALS (ACCURACY LEVEL [N. POINTS] UPPER LIMIT):
  1(  6[ 146]   0.2)  2( 11[ 302]   0.5)  3( 14[ 590]   0.9)  4( 18[1454]   3.5)
  5( 14[ 590]9999.0)
 TTTTTTTTTTTTTTTTTTTTTTTTTTTTTT INT_CALC    TELAPSE        5.00 TCPU        3.06

 *******************************************************************************
 ICSD_CollCode136503.cif                                                         
 CRYSTAL - SCF - TYPE OF CALCULATION :  RESTRICTED CLOSED SHELL
 *******************************************************************************

 CAPPA:IS1  8;IS2  8;IS3  8; K PTS MONK NET  29; SYMMOPS:K SPACE  48;G SPACE  24

 TTTTTTTTTTTTTTTTTTTTTTTTTTTTTT SDIK        TELAPSE        5.03 TCPU        3.09

 AAAAAAAAAAAAAAAAAAAAAAAAAAAAAAAAAAAAAAAAAAAAAAAAAAAAAAAAAAAAAAAAAAAAAAAAAAAAAAA
         ATOMIC WAVEFUNCTION(S)


 NUCLEAR CHARGE 30.0  SYMMETRY SPECIES            S    P    D
 N. ELECTRONS   30.0  NUMBER OF PRIMITIVE GTOS   17   11    6
                      NUMBER OF CONTRACTED GTOS   6    4    3
                      NUMBER OF CLOSED SHELLS     4    2    1
                      OPEN SHELL OCCUPATION       0    0    0

  ZNUC  SCFIT    TOTAL HF ENERGY   KINETIC ENERGY   VIRIAL THEOREM             ACCURACY
  30.0    18    -1.777712574E+03  1.776653869E+03 -2.000595898E+00  2.8E-06

 NUCLEAR CHARGE 16.0  SYMMETRY SPECIES            S    P
 N. ELECTRONS   16.0  NUMBER OF PRIMITIVE GTOS   14    8
                      NUMBER OF CONTRACTED GTOS   5    4
                      NUMBER OF CLOSED SHELLS     3    1
                      OPEN SHELL OCCUPATION       0    4

  ZNUC  SCFIT    TOTAL HF ENERGY   KINETIC ENERGY   VIRIAL THEOREM             ACCURACY
  16.0    11    -3.974118762E+02  3.986854297E+02 -1.996805618E+00  4.0E-06

 AAAAAAAAAAAAAAAAAAAAAAAAAAAAAAAAAAAAAAAAAAAAAAAAAAAAAAAAAAAAAAAAAAAAAAAAAAAAAAA

 TTTTTTTTTTTTTTTTTTTTTTTTTTTTTT MOQGAD      TELAPSE        5.04 TCPU        3.09
 TTTTTTTTTTTTTTTTTTTTTTTTTTTTTT SHELLXN     TELAPSE        5.74 TCPU        3.79
 TTTTTTTTTTTTTTTTTTTTTTTTTTTTTT MONMO3      TELAPSE        5.74 TCPU        3.79
 NUMERICALLY INTEGRATED DENSITY     45.9999994580
 TTTTTTTTTTTTTTTTTTTTTTTTTTTTTT NUMDFT      TELAPSE        5.79 TCPU        3.84
 CYC   0 ETOT(AU) -2.177500630068E+03 DETOT -2.18E+03 tst  0.00E+00 PX  1.00E+00
 TTTTTTTTTTTTTTTTTTTTTTTTTTTTTT DIIS        TELAPSE        5.80 TCPU        3.85
 TTTTTTTTTTTTTTTTTTTTTTTTTTTTTT FDIK        TELAPSE        5.80 TCPU        3.85
 INSULATING STATE
 TOP OF VALENCE BANDS -    BAND     23; K    1; EIG -2.1960299E-01 AU
 BOTTOM OF VIRTUAL BANDS - BAND     24; K    1; EIG -9.1654866E-02 AU
 DIRECT ENERGY BAND GAP:   3.4816 eV
 TTTTTTTTTTTTTTTTTTTTTTTTTTTTTT PDIG        TELAPSE        5.81 TCPU        3.86
 TTTTTTTTTTTTTTTTTTTTTTTTTTTTTT MOQGAD      TELAPSE        5.81 TCPU        3.86
 TTTTTTTTTTTTTTTTTTTTTTTTTTTTTT SHELLXN     TELAPSE        6.52 TCPU        4.57
 TTTTTTTTTTTTTTTTTTTTTTTTTTTTTT MONMO3      TELAPSE        6.53 TCPU        4.57
 NUMERICALLY INTEGRATED DENSITY     45.9999989191
 TTTTTTTTTTTTTTTTTTTTTTTTTTTTTT NUMDFT      TELAPSE        6.58 TCPU        4.62
 CYC   1 ETOT(AU) -2.177190235497E+03 DETOT  3.10E-01 tst  0.00E+00 PX  1.00E+00
 TTTTTTTTTTTTTTTTTTTTTTTTTTTTTT DIIS        TELAPSE        6.58 TCPU        4.62
 DIIS TEST: 0.54703E+00 AT SCF   CYCLE   1 - MIX   30 %
 TTTTTTTTTTTTTTTTTTTTTTTTTTTTTT FDIK        TELAPSE        6.59 TCPU        4.62
 INSULATING STATE
 TOP OF VALENCE BANDS -    BAND     23; K    1; EIG -2.0554974E-01 AU
 BOTTOM OF VIRTUAL BANDS - BAND     24; K    1; EIG -5.6281825E-02 AU
 DIRECT ENERGY BAND GAP:   4.0618 eV
 TTTTTTTTTTTTTTTTTTTTTTTTTTTTTT PDIG        TELAPSE        6.60 TCPU        4.63
 TTTTTTTTTTTTTTTTTTTTTTTTTTTTTT MOQGAD      TELAPSE        6.60 TCPU        4.63
 TTTTTTTTTTTTTTTTTTTTTTTTTTTTTT SHELLXN     TELAPSE        7.31 TCPU        5.34
 TTTTTTTTTTTTTTTTTTTTTTTTTTTTTT MONMO3      TELAPSE        7.31 TCPU        5.34
 NUMERICALLY INTEGRATED DENSITY     45.9999996380
 TTTTTTTTTTTTTTTTTTTTTTTTTTTTTT NUMDFT      TELAPSE        7.36 TCPU        5.39
 CYC   2 ETOT(AU) -2.177198661225E+03 DETOT -8.43E-03 tst  2.56E-03 PX  1.44E-01
 TTTTTTTTTTTTTTTTTTTTTTTTTTTTTT DIIS        TELAPSE        7.36 TCPU        5.40
 DIIS TEST: 0.66106E+00 AT SCF   CYCLE   2 - DIIS ACTIVE - HISTORY:     2 CYCLES
 TTTTTTTTTTTTTTTTTTTTTTTTTTTTTT FDIK        TELAPSE        7.48 TCPU        5.48
 INSULATING STATE
 TOP OF VALENCE BANDS -    BAND     23; K    1; EIG -2.0809186E-01 AU
 BOTTOM OF VIRTUAL BANDS - BAND     24; K    1; EIG -4.3704852E-02 AU
 DIRECT ENERGY BAND GAP:   4.4732 eV
 TTTTTTTTTTTTTTTTTTTTTTTTTTTTTT PDIG        TELAPSE        7.49 TCPU        5.49
 TTTTTTTTTTTTTTTTTTTTTTTTTTTTTT MOQGAD      TELAPSE        7.49 TCPU        5.49
 TTTTTTTTTTTTTTTTTTTTTTTTTTTTTT SHELLXN     TELAPSE        8.21 TCPU        6.20
 TTTTTTTTTTTTTTTTTTTTTTTTTTTTTT MONMO3      TELAPSE        8.21 TCPU        6.20
 NUMERICALLY INTEGRATED DENSITY     45.9999995902
 TTTTTTTTTTTTTTTTTTTTTTTTTTTTTT NUMDFT      TELAPSE        8.26 TCPU        6.25
 CYC   3 ETOT(AU) -2.177233452688E+03 DETOT -3.48E-02 tst  5.98E-04 PX  3.69E-02
 TTTTTTTTTTTTTTTTTTTTTTTTTTTTTT DIIS        TELAPSE        8.26 TCPU        6.25
 DIIS TEST: 0.46711E-02 AT SCF   CYCLE   3 - DIIS ACTIVE - HISTORY:     3 CYCLES
 TTTTTTTTTTTTTTTTTTTTTTTTTTTTTT FDIK        TELAPSE        8.27 TCPU        6.25
 INSULATING STATE
 TOP OF VALENCE BANDS -    BAND     23; K    1; EIG -2.2325988E-01 AU
 BOTTOM OF VIRTUAL BANDS - BAND     24; K    1; EIG -5.1303062E-02 AU
 DIRECT ENERGY BAND GAP:   4.6792 eV
 TTTTTTTTTTTTTTTTTTTTTTTTTTTTTT PDIG        TELAPSE        8.27 TCPU        6.26
 TTTTTTTTTTTTTTTTTTTTTTTTTTTTTT MOQGAD      TELAPSE        8.27 TCPU        6.26
 TTTTTTTTTTTTTTTTTTTTTTTTTTTTTT SHELLXN     TELAPSE        8.99 TCPU        6.97
 TTTTTTTTTTTTTTTTTTTTTTTTTTTTTT MONMO3      TELAPSE        8.99 TCPU        6.97
 NUMERICALLY INTEGRATED DENSITY     45.9999994075
 TTTTTTTTTTTTTTTTTTTTTTTTTTTTTT NUMDFT      TELAPSE        9.04 TCPU        7.02
 CYC   4 ETOT(AU) -2.177234641431E+03 DETOT -1.19E-03 tst  1.20E-04 PX  3.16E-02
 TTTTTTTTTTTTTTTTTTTTTTTTTTTTTT DIIS        TELAPSE        9.04 TCPU        7.03
 DIIS TEST: 0.20873E-03 AT SCF   CYCLE   4 - DIIS ACTIVE - HISTORY:     4 CYCLES
 TTTTTTTTTTTTTTTTTTTTTTTTTTTTTT FDIK        TELAPSE        9.05 TCPU        7.03
 INSULATING STATE
 TOP OF VALENCE BANDS -    BAND     23; K    1; EIG -2.2132089E-01 AU
 BOTTOM OF VIRTUAL BANDS - BAND     24; K    1; EIG -4.9045183E-02 AU
 DIRECT ENERGY BAND GAP:   4.6879 eV
 TTTTTTTTTTTTTTTTTTTTTTTTTTTTTT PDIG        TELAPSE        9.06 TCPU        7.04
 TTTTTTTTTTTTTTTTTTTTTTTTTTTTTT MOQGAD      TELAPSE        9.06 TCPU        7.04
 TTTTTTTTTTTTTTTTTTTTTTTTTTTTTT SHELLXN     TELAPSE        9.77 TCPU        7.74
 TTTTTTTTTTTTTTTTTTTTTTTTTTTTTT MONMO3      TELAPSE        9.77 TCPU        7.75
 NUMERICALLY INTEGRATED DENSITY     45.9999994381
 TTTTTTTTTTTTTTTTTTTTTTTTTTTTTT NUMDFT      TELAPSE        9.82 TCPU        7.80
 CYC   5 ETOT(AU) -2.177234674771E+03 DETOT -3.33E-05 tst  1.38E-06 PX  5.42E-03
 TTTTTTTTTTTTTTTTTTTTTTTTTTTTTT DIIS        TELAPSE        9.82 TCPU        7.80
 DIIS TEST: 0.93294E-05 AT SCF   CYCLE   5 - DIIS ACTIVE - HISTORY:     5 CYCLES
 TTTTTTTTTTTTTTTTTTTTTTTTTTTTTT FDIK        TELAPSE        9.83 TCPU        7.80
 INSULATING STATE
 TOP OF VALENCE BANDS -    BAND     23; K    1; EIG -2.2124767E-01 AU
 BOTTOM OF VIRTUAL BANDS - BAND     24; K    1; EIG -4.8849189E-02 AU
 DIRECT ENERGY BAND GAP:   4.6912 eV
 TTTTTTTTTTTTTTTTTTTTTTTTTTTTTT PDIG        TELAPSE        9.84 TCPU        7.81
 TTTTTTTTTTTTTTTTTTTTTTTTTTTTTT MOQGAD      TELAPSE        9.84 TCPU        7.81
 TTTTTTTTTTTTTTTTTTTTTTTTTTTTTT SHELLXN     TELAPSE       10.55 TCPU        8.52
 TTTTTTTTTTTTTTTTTTTTTTTTTTTTTT MONMO3      TELAPSE       10.55 TCPU        8.52
 NUMERICALLY INTEGRATED DENSITY     45.9999994416
 TTTTTTTTTTTTTTTTTTTTTTTTTTTTTT NUMDFT      TELAPSE       10.61 TCPU        8.57
 CYC   6 ETOT(AU) -2.177234676169E+03 DETOT -1.40E-06 tst  4.71E-08 PX  7.07E-04
 TTTTTTTTTTTTTTTTTTTTTTTTTTTTTT DIIS        TELAPSE       10.61 TCPU        8.57
 DIIS TEST: 0.13531E-07 AT SCF   CYCLE   6 - DIIS ACTIVE - HISTORY:     6 CYCLES
 TTTTTTTTTTTTTTTTTTTTTTTTTTTTTT FDIK        TELAPSE       10.61 TCPU        8.58
 INSULATING STATE
 TOP OF VALENCE BANDS -    BAND     23; K    1; EIG -2.2127820E-01 AU
 BOTTOM OF VIRTUAL BANDS - BAND     24; K    1; EIG -4.8863959E-02 AU
 DIRECT ENERGY BAND GAP:   4.6916 eV
 TTTTTTTTTTTTTTTTTTTTTTTTTTTTTT PDIG        TELAPSE       10.62 TCPU        8.59
 TTTTTTTTTTTTTTTTTTTTTTTTTTTTTT MOQGAD      TELAPSE       10.62 TCPU        8.59
 TTTTTTTTTTTTTTTTTTTTTTTTTTTTTT SHELLXN     TELAPSE       11.34 TCPU        9.29
 TTTTTTTTTTTTTTTTTTTTTTTTTTTTTT MONMO3      TELAPSE       11.34 TCPU        9.29
 NUMERICALLY INTEGRATED DENSITY     45.9999994416
 TTTTTTTTTTTTTTTTTTTTTTTTTTTTTT NUMDFT      TELAPSE       11.39 TCPU        9.35
 CYC   7 ETOT(AU) -2.177234676208E+03 DETOT -3.89E-08 tst  2.41E-10 PX  6.50E-05
 TTTTTTTTTTTTTTTTTTTTTTTTTTTTTT DIIS        TELAPSE       11.39 TCPU        9.35
 DIIS TEST: 0.10478E-08 AT SCF   CYCLE   7 - DIIS ACTIVE - HISTORY:     7 CYCLES
 TTTTTTTTTTTTTTTTTTTTTTTTTTTTTT FDIK        TELAPSE       11.43 TCPU        9.38
 INSULATING STATE
 TOP OF VALENCE BANDS -    BAND     23; K    1; EIG -2.2127358E-01 AU
 BOTTOM OF VIRTUAL BANDS - BAND     24; K    1; EIG -4.8860330E-02 AU
 DIRECT ENERGY BAND GAP:   4.6916 eV
 TTTTTTTTTTTTTTTTTTTTTTTTTTTTTT PDIG        TELAPSE       11.44 TCPU        9.39
 TTTTTTTTTTTTTTTTTTTTTTTTTTTTTT MOQGAD      TELAPSE       11.44 TCPU        9.39
 TTTTTTTTTTTTTTTTTTTTTTTTTTTTTT SHELLXN     TELAPSE       12.15 TCPU       10.10
 TTTTTTTTTTTTTTTTTTTTTTTTTTTTTT MONMO3      TELAPSE       12.15 TCPU       10.10
 NUMERICALLY INTEGRATED DENSITY     45.9999994417
 TTTTTTTTTTTTTTTTTTTTTTTTTTTTTT NUMDFT      TELAPSE       12.20 TCPU       10.15
 CYC   8 ETOT(AU) -2.177234676206E+03 DETOT  1.74E-09 tst  7.61E-12 PX  9.03E-06
 TTTTTTTTTTTTTTTTTTTTTTTTTTTTTT DIIS        TELAPSE       12.20 TCPU       10.15
 DIIS TEST: 0.36175E-11 AT SCF   CYCLE   8 - DIIS ACTIVE - HISTORY:     8 CYCLES
 TTTTTTTTTTTTTTTTTTTTTTTTTTTTTT FDIK        TELAPSE       12.21 TCPU       10.15
 INSULATING STATE
 TOP OF VALENCE BANDS -    BAND     23; K    1; EIG -2.2127375E-01 AU
 BOTTOM OF VIRTUAL BANDS - BAND     24; K    1; EIG -4.8860555E-02 AU
 DIRECT ENERGY BAND GAP:   4.6916 eV
 TTTTTTTTTTTTTTTTTTTTTTTTTTTTTT PDIG        TELAPSE       12.22 TCPU       10.16
 TTTTTTTTTTTTTTTTTTTTTTTTTTTTTT MOQGAD      TELAPSE       12.22 TCPU       10.16
 TTTTTTTTTTTTTTTTTTTTTTTTTTTTTT SHELLXN     TELAPSE       12.93 TCPU       10.87
 TTTTTTTTTTTTTTTTTTTTTTTTTTTTTT MONMO3      TELAPSE       12.93 TCPU       10.87
 NUMERICALLY INTEGRATED DENSITY     45.9999994416
 TTTTTTTTTTTTTTTTTTTTTTTTTTTTTT NUMDFT      TELAPSE       12.98 TCPU       10.92
 CYC   9 ETOT(AU) -2.177234676206E+03 DETOT  4.32E-10 tst  3.25E-14 PX  6.91E-07
 TTTTTTTTTTTTTTTTTTTTTTTTTTTTTT DIIS        TELAPSE       12.99 TCPU       10.93
 DIIS TEST: 0.13321E-14 AT SCF   CYCLE   9 - DIIS ACTIVE - HISTORY:     9 CYCLES
 TTTTTTTTTTTTTTTTTTTTTTTTTTTTTT FDIK        TELAPSE       13.00 TCPU       10.94
 INSULATING STATE
 TOP OF VALENCE BANDS -    BAND     23; K    1; EIG -2.2127373E-01 AU
 BOTTOM OF VIRTUAL BANDS - BAND     24; K    1; EIG -4.8860546E-02 AU
 DIRECT ENERGY BAND GAP:   4.6916 eV
 TTTTTTTTTTTTTTTTTTTTTTTTTTTTTT PDIG        TELAPSE       13.01 TCPU       10.95
 TTTTTTTTTTTTTTTTTTTTTTTTTTTTTT MOQGAD      TELAPSE       13.01 TCPU       10.95
 TTTTTTTTTTTTTTTTTTTTTTTTTTTTTT SHELLXN     TELAPSE       13.72 TCPU       11.65
 TTTTTTTTTTTTTTTTTTTTTTTTTTTTTT MONMO3      TELAPSE       13.72 TCPU       11.65
 NUMERICALLY INTEGRATED DENSITY     45.9999994416
 TTTTTTTTTTTTTTTTTTTTTTTTTTTTTT NUMDFT      TELAPSE       13.78 TCPU       11.71
 CYC  10 ETOT(AU) -2.177234676206E+03 DETOT  3.09E-11 tst  6.07E-17 PX  3.11E-08
 TTTTTTTTTTTTTTTTTTTTTTTTTTTTTT DIIS        TELAPSE       13.78 TCPU       11.71
 DIIS TEST: 0.24894E-16 AT SCF   CYCLE  10 - DIIS ACTIVE - HISTORY:    10 CYCLES
 TTTTTTTTTTTTTTTTTTTTTTTTTTTTTT FDIK        TELAPSE       13.78 TCPU       11.71
 INSULATING STATE
 TOP OF VALENCE BANDS -    BAND     23; K    1; EIG -2.2127373E-01 AU
 BOTTOM OF VIRTUAL BANDS - BAND     24; K    1; EIG -4.8860546E-02 AU
 DIRECT ENERGY BAND GAP:   4.6916 eV
 TTTTTTTTTTTTTTTTTTTTTTTTTTTTTT PDIG        TELAPSE       13.79 TCPU       11.72
 TTTTTTTTTTTTTTTTTTTTTTTTTTTTTT MOQGAD      TELAPSE       13.79 TCPU       11.72
 TTTTTTTTTTTTTTTTTTTTTTTTTTTTTT SHELLXN     TELAPSE       14.50 TCPU       12.43
 TTTTTTTTTTTTTTTTTTTTTTTTTTTTTT MONMO3      TELAPSE       14.51 TCPU       12.43
 NUMERICALLY INTEGRATED DENSITY     45.9999994416
 TTTTTTTTTTTTTTTTTTTTTTTTTTTTTT NUMDFT      TELAPSE       14.56 TCPU       12.48
 CYC  11 ETOT(AU) -2.177234676206E+03 DETOT -1.36E-12 tst  2.27E-19 PX  1.66E-09
 TTTTTTTTTTTTTTTTTTTTTTTTTTTTTT DIIS        TELAPSE       14.56 TCPU       12.48
 DIIS TEST: 0.12670E-18 AT SCF   CYCLE  11 - DIIS ACTIVE - HISTORY:     9 CYCLES
 TTTTTTTTTTTTTTTTTTTTTTTTTTTTTT FDIK        TELAPSE       14.56 TCPU       12.48
 INSULATING STATE
 TOP OF VALENCE BANDS -    BAND     23; K    1; EIG -2.2127373E-01 AU
 BOTTOM OF VIRTUAL BANDS - BAND     24; K    1; EIG -4.8860546E-02 AU
 DIRECT ENERGY BAND GAP:   4.6916 eV
 TTTTTTTTTTTTTTTTTTTTTTTTTTTTTT PDIG        TELAPSE       14.57 TCPU       12.49
 TTTTTTTTTTTTTTTTTTTTTTTTTTTTTT MOQGAD      TELAPSE       14.57 TCPU       12.49
 TTTTTTTTTTTTTTTTTTTTTTTTTTTTTT SHELLXN     TELAPSE       15.28 TCPU       13.20
 ::: PSEUDO TOTAL   ENERGY                        -2.1042948809085E+03
 ::: VIRIAL COEFFICIENT                            1.0164174625907E+00
 TTTTTTTTTTTTTTTTTTTTTTTTTTTTTT MONMO3      TELAPSE       15.29 TCPU       13.20
 NUMERICALLY INTEGRATED DENSITY     45.9999994416
 EXCHANGE ENERGY: -0.708562944581E+02  CORRELATION ENERGY: -0.208350083894E+01
 TTTTTTTTTTTTTTTTTTTTTTTTTTTTTT NUMDFT      TELAPSE       15.34 TCPU       13.25
 CYC  12 ETOT(AU) -2.177234676206E+03 DETOT -4.55E-13 tst  4.42E-22 PX  1.66E-09

 == SCF ENDED - CONVERGENCE ON ENERGY      E(AU) -2.1772346762056E+03 CYCLES  12


 ENERGY EXPRESSION=HARTREE+FOCK EXCH*0.25000+(PBE        EXCH)*0.75000+PBE        CORR


 TOTAL ENERGY(DFT)(AU)( 12) -2.1772346762056E+03 DE-4.5E-13 tester 4.4E-22
 TTTTTTTTTTTTTTTTTTTTTTTTTTTTTT EDFT        TELAPSE       15.34 TCPU       13.25

 *******************************************************************************
 *                             FORCE CALCULATION                               *
 *******************************************************************************

 TTTTTTTTTTTTTTTTTTTTTTTTTTTTTT NUMDFG      TELAPSE       15.50 TCPU       13.41
 INFORMATION **** EXCPOG **** EXCH. BIPO BUFFER LENGTH (WORDS) =     1419984
 INFORMATION **** GENPOG **** BIPO BUFFER LENGTH (WORDS) =      239200
 TTTTTTTTTTTTTTTTTTTTTTTTTTTTTT SHELXG      TELAPSE       20.26 TCPU       18.15

 CARTESIAN FORCES IN HARTREE/BOHR (ANALYTICAL)
   ATOM                     X                   Y                   Z
   1  30             1.277342402932E-14  4.996084215247E-15  3.673606648953E-15
   2  16            -1.276879810006E-14 -4.991458285977E-15 -3.673606648953E-15

 RESULTANT FORCE     4.625929269261E-18  4.625929269269E-18  0.000000000000E+00

 ATOMIC PART

 THERE ARE NO SYMMETRY ALLOWED DIRECTIONS

 CELL PART

 GRADIENT WITH RESPECT TO THE CELL PARAMETER IN HARTREE/BOHR
ORDER: -D/DA1X, -D/DA1Y, -D/DA1Z
       -D/DA2X, -D/DA2Y, -D/DA2Z
       -D/DA3X, -D/DA3Y, -D/DA3Z
 -0.373287400916E-03  0.373287400928E-03  0.373287400930E-03
  0.373287400922E-03 -0.373287400910E-03  0.373287400918E-03
  0.373287400924E-03  0.373287400921E-03 -0.373287400915E-03

STRESS TENSOR, IN HARTREE/BOHR^3:
ORDER: 11 12 13
       21 22 23
       31 32 33
 -0.143040927636E-04 -0.136137355743E-15 -0.102102993839E-15
 -0.215551218845E-15 -0.143040927637E-04 -0.340343415159E-15
 -0.680689077382E-16 -0.294963627344E-15 -0.143040927637E-04

PRESSURE FROM THE STRESS TENSOR,
IN HARTREE/BOHR^3:  0.14304E-04
PRESSURE IN GIGAPASCAL:  0.4208E+00
CONVERSION FACTOR: 1 HARTREE/BOHR^3= 29421 GIGAPASCAL
WHEN USING VALUES FOR BOHR RADIUS AND HARTREE
FROM IUPAC WEBSITE, APRIL 2009
ENTHALPY: -2.1772308623448E+03

 SYMMETRY ALLOWED FORCES (ANALYTICAL) (DIRECTION, FORCE)

    1  6.6058006E-03
 TTTTTTTTTTTTTTTTTTTTTTTTTTTTTT TOTGRA      TELAPSE       20.28 TCPU       18.17
 INFORMATION **** optc001 **** GEOMETRY OUTPUT FILE
 CLASSICAL MODEL (SCHLEGEL) USED AS INITIAL HESSIAN MATRIX
 REFERENCE GEOMETRY DEFINED

 MAX GRADIENT      0.006606  THRESHOLD              0.000045 CONVERGED NO
 RMS GRADIENT      0.006606  THRESHOLD              0.000030 CONVERGED NO

 GRADIENT NORM     0.006606  GRADIENT THRESHOLD     0.500000

 EIGENVALUES OF THE ESTIMATED HESSIAN
   2.574    

 INITIAL TRUST RADIUS    0.5000000000E+00

 PREDICTED ENERGY CHANGE    -0.848E-05

 INITIAL DISPLACEMENTS
  0.002567
 TTTTTTTTTTTTTTTTTTTTTTTTTTTTTT OPTI        TELAPSE       20.31 TCPU       18.19

 OPTOPTOPTOPTOPTOPTOPTOPTOPTOPTOPTOPTOPTOPTOPTOPTOPTOPTOPTOPTOPTOPTOPTOPTOPTOPT

 - INFORMATION ON SCF MOVED TO SCFOUT.LOG
 GEOMETRY OPTIMIZATION INFORMATION STORED IN OPTINFO.DAT

 OPTOPTOPTOPTOPTOPTOPTOPTOPTOPTOPTOPTOPTOPTOPTOPTOPTOPTOPTOPTOPTOPTOPTOPTOPTOPT
 *******************************************************************************
 CELL OPTIMIZATION - POINT    2
 *******************************************************************************
 LATTICE PARAMETERS (ANGSTROMS AND DEGREES) - BOHR = 0.5291772083 ANGSTROM
 PRIMITIVE CELL - CENTRING CODE 5/0 VOLUME=    39.685978 - DENSITY  4.013 g/cm^3
         A              B              C           ALPHA      BETA       GAMMA 
     3.82869434     3.82869434     3.82869434    60.000000  60.000000  60.000000
 *******************************************************************************
 ATOMS IN THE ASYMMETRIC UNIT    2 - ATOMS IN THE UNIT CELL:    2
     ATOM                 X/A                 Y/B                 Z/C    
 *******************************************************************************
      1 T  30 ZN    2.500000000000E-01  2.500000000000E-01  2.500000000000E-01
      2 T  16 S     0.000000000000E+00  0.000000000000E+00  0.000000000000E+00

 TRANSFORMATION MATRIX PRIMITIVE-CRYSTALLOGRAPHIC CELL
 -1.0000  1.0000  1.0000  1.0000 -1.0000  1.0000  1.0000  1.0000 -1.0000

 *******************************************************************************
 CRYSTALLOGRAPHIC CELL (VOLUME=        158.74391284)
         A              B              C           ALPHA      BETA       GAMMA 
     5.41459146     5.41459146     5.41459146    90.000000  90.000000  90.000000

 COORDINATES IN THE CRYSTALLOGRAPHIC CELL
     ATOM                 X/A                 Y/B                 Z/C    
 *******************************************************************************
      1 T  30 ZN    2.500000000000E-01 -2.500000000000E-01 -2.500000000000E-01
      2 T  16 S     0.000000000000E+00  0.000000000000E+00  0.000000000000E+00

 T = ATOM BELONGING TO THE ASYMMETRIC UNIT

 TOTAL ENERGY(DFT)(AU)(  9) -2.1772346846897E+03     DE (AU)   -8.484E-06

 UPDATED TRUST RADIUS     0.500E+00

 SYMMETRY ALLOWED FORCES  (COORDINATE, FORCE)

    1  7.5679335E-04

 GRADIENT NORM     0.000757  GRADIENT THRESHOLD     0.500000

 EIGENVALUES OF THE ESTIMATED HESSIAN
   2.279    

 PREDICTED ENERGY CHANGE    -0.126E-06

 MAX GRADIENT      0.000757  THRESHOLD              0.000045 CONVERGED NO
 RMS GRADIENT      0.000757  THRESHOLD              0.000030 CONVERGED NO
 MAX DISPLAC.      0.000332  THRESHOLD              0.000180 CONVERGED NO
 RMS DISPLAC.      0.000332  THRESHOLD              0.000120 CONVERGED NO
 TTTTTTTTTTTTTTTTTTTTTTTTTTTTTT OPTI        TELAPSE       33.29 TCPU       31.07
 *******************************************************************************
 CELL OPTIMIZATION - POINT    3
 *******************************************************************************
 LATTICE PARAMETERS (ANGSTROMS AND DEGREES) - BOHR = 0.5291772083 ANGSTROM
 PRIMITIVE CELL - CENTRING CODE 5/0 VOLUME=    39.708809 - DENSITY  4.010 g/cm^3
         A              B              C           ALPHA      BETA       GAMMA 
     3.82942840     3.82942840     3.82942840    60.000000  60.000000  60.000000
 *******************************************************************************
 ATOMS IN THE ASYMMETRIC UNIT    2 - ATOMS IN THE UNIT CELL:    2
     ATOM                 X/A                 Y/B                 Z/C    
 *******************************************************************************
      1 T  30 ZN    2.500000000000E-01  2.500000000000E-01  2.500000000000E-01
      2 T  16 S     0.000000000000E+00  0.000000000000E+00  0.000000000000E+00

 TRANSFORMATION MATRIX PRIMITIVE-CRYSTALLOGRAPHIC CELL
 -1.0000  1.0000  1.0000  1.0000 -1.0000  1.0000  1.0000  1.0000 -1.0000

 *******************************************************************************
 CRYSTALLOGRAPHIC CELL (VOLUME=        158.83523697)
         A              B              C           ALPHA      BETA       GAMMA 
     5.41562958     5.41562958     5.41562958    90.000000  90.000000  90.000000

 COORDINATES IN THE CRYSTALLOGRAPHIC CELL
     ATOM                 X/A                 Y/B                 Z/C    
 *******************************************************************************
      1 T  30 ZN    2.500000000000E-01 -2.500000000000E-01 -2.500000000000E-01
      2 T  16 S     0.000000000000E+00  0.000000000000E+00  0.000000000000E+00

 T = ATOM BELONGING TO THE ASYMMETRIC UNIT

 TOTAL ENERGY(DFT)(AU)(  9) -2.1772346846891E+03     DE (AU)    6.394E-10

 UPDATED TRUST RADIUS     0.830E-04

 SYMMETRY ALLOWED FORCES  (COORDINATE, FORCE)

    1  3.7399965E-06

 GRADIENT NORM     0.000004  GRADIENT THRESHOLD     0.500000

 EIGENVALUES OF THE ESTIMATED HESSIAN
   2.268    

 PREDICTED ENERGY CHANGE    -0.308E-11

 MAX GRADIENT      0.000004  THRESHOLD              0.000045 CONVERGED YES
 RMS GRADIENT      0.000004  THRESHOLD              0.000030 CONVERGED YES
 MAX DISPLAC.      0.000002  THRESHOLD              0.000180 CONVERGED YES
 RMS DISPLAC.      0.000002  THRESHOLD              0.000120 CONVERGED YES

 CONVERGENCE TESTS SATISFIED AFTER   3 ENERGY AND GRADIENT CALCULATIONS
 +++++++++++++++++++++++++++++++++++++++++++++++++++++++++++++++++++++++++++++++
 FINALRUN OPTION: RE-STARTING OPTIMIZATION
 +++++++++++++++++++++++++++++++++++++++++++++++++++++++++++++++++++++++++++++++
 TTTTTTTTTTTTTTTTTTTTTTTTTTTTTT OPTI        TELAPSE       46.52 TCPU       44.18
 *******************************************************************************
 CELL OPTIMIZATION - POINT    4
 *******************************************************************************
 LATTICE PARAMETERS (ANGSTROMS AND DEGREES) - BOHR = 0.5291772083 ANGSTROM
 PRIMITIVE CELL - CENTRING CODE 5/0 VOLUME=    39.708923 - DENSITY  4.010 g/cm^3
         A              B              C           ALPHA      BETA       GAMMA 
     3.82943205     3.82943205     3.82943205    60.000000  60.000000  60.000000
 *******************************************************************************
 ATOMS IN THE ASYMMETRIC UNIT    2 - ATOMS IN THE UNIT CELL:    2
     ATOM                 X/A                 Y/B                 Z/C    
 *******************************************************************************
      1 T  30 ZN    2.500000000000E-01  2.500000000000E-01  2.500000000000E-01
      2 T  16 S     0.000000000000E+00  0.000000000000E+00  0.000000000000E+00

 TRANSFORMATION MATRIX PRIMITIVE-CRYSTALLOGRAPHIC CELL
 -1.0000  1.0000  1.0000  1.0000 -1.0000  1.0000  1.0000  1.0000 -1.0000

 *******************************************************************************
 CRYSTALLOGRAPHIC CELL (VOLUME=        158.83569070)
         A              B              C           ALPHA      BETA       GAMMA 
     5.41563474     5.41563474     5.41563474    90.000000  90.000000  90.000000

 COORDINATES IN THE CRYSTALLOGRAPHIC CELL
     ATOM                 X/A                 Y/B                 Z/C    
 *******************************************************************************
      1 T  30 ZN    2.500000000000E-01 -2.500000000000E-01 -2.500000000000E-01
      2 T  16 S     0.000000000000E+00  0.000000000000E+00  0.000000000000E+00

 T = ATOM BELONGING TO THE ASYMMETRIC UNIT

 REFERENCE GEOMETRY WILL BE CHANGED

 TOTAL ENERGY(DFT)(AU)(  6) -2.1772346990955E+03     DE (AU)   -1.441E-05

 SYMMETRY ALLOWED FORCES  (COORDINATE, FORCE)

    1 -9.5984092E-05

 GRADIENT NORM     0.000096  GRADIENT THRESHOLD     0.500000

 HESSIAN UPDATE SKIPPED

 EIGENVALUES OF THE ESTIMATED HESSIAN
   2.268    

 PREDICTED ENERGY CHANGE    -0.203E-08

 MAX GRADIENT      0.000096  THRESHOLD              0.000045 CONVERGED NO
 RMS GRADIENT      0.000096  THRESHOLD              0.000030 CONVERGED NO
 MAX DISPLAC.      0.000042  THRESHOLD              0.000180 CONVERGED YES
 RMS DISPLAC.      0.000042  THRESHOLD              0.000120 CONVERGED YES
 TTTTTTTTTTTTTTTTTTTTTTTTTTTTTT OPTI        TELAPSE       57.11 TCPU       54.67
 *******************************************************************************
 CELL OPTIMIZATION - POINT    5
 *******************************************************************************
 LATTICE PARAMETERS (ANGSTROMS AND DEGREES) - BOHR = 0.5291772083 ANGSTROM
 PRIMITIVE CELL - CENTRING CODE 5/0 VOLUME=    39.706012 - DENSITY  4.011 g/cm^3
         A              B              C           ALPHA      BETA       GAMMA 
     3.82933847     3.82933847     3.82933847    60.000000  60.000000  60.000000
 *******************************************************************************
 ATOMS IN THE ASYMMETRIC UNIT    2 - ATOMS IN THE UNIT CELL:    2
     ATOM                 X/A                 Y/B                 Z/C    
 *******************************************************************************
      1 T  30 ZN    2.500000000000E-01  2.500000000000E-01  2.500000000000E-01
      2 T  16 S     0.000000000000E+00  0.000000000000E+00  0.000000000000E+00

 TRANSFORMATION MATRIX PRIMITIVE-CRYSTALLOGRAPHIC CELL
 -1.0000  1.0000  1.0000  1.0000 -1.0000  1.0000  1.0000  1.0000 -1.0000

 *******************************************************************************
 CRYSTALLOGRAPHIC CELL (VOLUME=        158.82404633)
         A              B              C           ALPHA      BETA       GAMMA 
     5.41550239     5.41550239     5.41550239    90.000000  90.000000  90.000000

 COORDINATES IN THE CRYSTALLOGRAPHIC CELL
     ATOM                 X/A                 Y/B                 Z/C    
 *******************************************************************************
      1 T  30 ZN    2.500000000000E-01 -2.500000000000E-01 -2.500000000000E-01
      2 T  16 S     0.000000000000E+00  0.000000000000E+00  0.000000000000E+00

 T = ATOM BELONGING TO THE ASYMMETRIC UNIT

 TOTAL ENERGY(DFT)(AU)(  8) -2.1772346991144E+03     DE (AU)   -1.892E-08

 UPDATED TRUST RADIUS     0.166E-03

 SYMMETRY ALLOWED FORCES  (COORDINATE, FORCE)

    1 -6.8360265E-08

 GRADIENT NORM     0.000000  GRADIENT THRESHOLD     0.500000

 EIGENVALUES OF THE ESTIMATED HESSIAN
   2.266    

 PREDICTED ENERGY CHANGE    -0.103E-14

 MAX GRADIENT      0.000000  THRESHOLD              0.000045 CONVERGED YES
 RMS GRADIENT      0.000000  THRESHOLD              0.000030 CONVERGED YES

 WARNINGWARNINGWARNINGWARNINGWARNINGWARNINGWARNINGWARNINGWARNINGWARNINGWARNING

 CONVERGENCE ON GRADIENT - NO CHANGE IN ENERGY FOR   2 STEPS

 CONVERGENCE TESTS SATISFIED AFTER   5 ENERGY AND GRADIENT CALCULATIONS

 WARNINGWARNINGWARNINGWARNINGWARNINGWARNINGWARNINGWARNINGWARNINGWARNINGWARNING

 +++++++++++++++++++++++++++++++++++++++++++++++++++++++++++++++++++++++++++++++
 FINALRUN OPTION: RE-STARTING OPTIMIZATION
 +++++++++++++++++++++++++++++++++++++++++++++++++++++++++++++++++++++++++++++++
 TTTTTTTTTTTTTTTTTTTTTTTTTTTTTT OPTI        TELAPSE       69.19 TCPU       66.66
 *******************************************************************************
 CELL OPTIMIZATION - POINT    6
 *******************************************************************************
 LATTICE PARAMETERS (ANGSTROMS AND DEGREES) - BOHR = 0.5291772083 ANGSTROM
 PRIMITIVE CELL - CENTRING CODE 5/0 VOLUME=    39.706010 - DENSITY  4.011 g/cm^3
         A              B              C           ALPHA      BETA       GAMMA 
     3.82933840     3.82933840     3.82933840    60.000000  60.000000  60.000000
 *******************************************************************************
 ATOMS IN THE ASYMMETRIC UNIT    2 - ATOMS IN THE UNIT CELL:    2
     ATOM                 X/A                 Y/B                 Z/C    
 *******************************************************************************
      1 T  30 ZN    2.500000000000E-01  2.500000000000E-01  2.500000000000E-01
      2 T  16 S     0.000000000000E+00  0.000000000000E+00  0.000000000000E+00

 TRANSFORMATION MATRIX PRIMITIVE-CRYSTALLOGRAPHIC CELL
 -1.0000  1.0000  1.0000  1.0000 -1.0000  1.0000  1.0000  1.0000 -1.0000

 *******************************************************************************
 CRYSTALLOGRAPHIC CELL (VOLUME=        158.82403803)
         A              B              C           ALPHA      BETA       GAMMA 
     5.41550230     5.41550230     5.41550230    90.000000  90.000000  90.000000

 COORDINATES IN THE CRYSTALLOGRAPHIC CELL
     ATOM                 X/A                 Y/B                 Z/C    
 *******************************************************************************
      1 T  30 ZN    2.500000000000E-01 -2.500000000000E-01 -2.500000000000E-01
      2 T  16 S     0.000000000000E+00  0.000000000000E+00  0.000000000000E+00

 T = ATOM BELONGING TO THE ASYMMETRIC UNIT

 REFERENCE GEOMETRY WILL BE CHANGED

 TOTAL ENERGY(DFT)(AU)(  3) -2.1772346990131E+03     DE (AU)    1.013E-07

 SYMMETRY ALLOWED FORCES  (COORDINATE, FORCE)

    1  3.5303597E-07

 GRADIENT NORM     0.000000  GRADIENT THRESHOLD     0.500000

 HESSIAN UPDATE SKIPPED

 EIGENVALUES OF THE ESTIMATED HESSIAN
   2.266    

 PREDICTED ENERGY CHANGE    -0.275E-13

 MAX GRADIENT      0.000000  THRESHOLD              0.000045 CONVERGED YES
 RMS GRADIENT      0.000000  THRESHOLD              0.000030 CONVERGED YES
 MAX DISPLAC.      0.000000  THRESHOLD              0.000180 CONVERGED YES
 RMS DISPLAC.      0.000000  THRESHOLD              0.000120 CONVERGED YES

 CONVERGENCE TESTS SATISFIED AFTER   6 ENERGY AND GRADIENT CALCULATIONS

 ******************************************************************
 * OPT END - CONVERGED * E(AU):  -2.177234699013E+03  POINTS    6 *
 ******************************************************************

   BAND GAP:                      4.6689  eV 

 EIGENVECTORS IN FORTRAN UNIT 10

 NEIGHBORS OF THE NON-EQUIVALENT ATOMS

 N = NUMBER OF NEIGHBORS AT DISTANCE R
    ATOM  N     R/ANG      R/AU   NEIGHBORS (ATOM LABELS AND CELL INDICES)
   1 ZN   4     2.3450     4.4314    2 S    0 0 0    2 S   -1 0 0    2 S   -1 0 1
                                     2 S   -1 1 0
   1 ZN  12     3.8293     7.2364    1 ZN  -1 0 0    1 ZN   1 0 0    1 ZN  -1 0 1
                                     1 ZN   1 0-1    1 ZN  -1 1 0    1 ZN   1-1 0
                                     1 ZN   0-1 0    1 ZN   0 1 0    1 ZN   0-1 1
                                     1 ZN   0 1-1    1 ZN   0 0-1    1 ZN   0 0 1
   1 ZN  12     4.4903     8.4854    2 S    0 1 0    2 S    0-1 0    2 S    0 1-1
                                     2 S    0-1 1    2 S    0 0 1    2 S    0 0-1
                                     2 S   -1-1 1    2 S   -1 1-1    2 S   -1 1 1
                                     2 S   -2 0 1    2 S   -2 1 0    2 S   -2 1 1
   1 ZN   6     5.4155    10.2338    1 ZN  -1-1 1    1 ZN   1 1-1    1 ZN  -1 1-1
                                     1 ZN   1-1 1    1 ZN  -1 1 1    1 ZN   1-1-1
   1 ZN  12     5.9014    11.1520    2 S    1 0 0    2 S    1 0-1    2 S    1-1 0
                                     2 S   -1-1 0    2 S   -1-1 2    2 S   -1 0-1
                                     2 S   -1 0 2    2 S   -1 2-1    2 S   -1 2 0
                                     2 S   -2 0 0    2 S   -2 0 2    2 S   -2 2 0
   1 ZN  24     6.6326    12.5338    1 ZN  -2 0 1    1 ZN   2 0-1    1 ZN  -2 1 0
                                     1 ZN   2-1 0    1 ZN  -2 1 1    1 ZN   2-1-1
                                     1 ZN  -1-1 0    1 ZN   1 1 0    1 ZN  -1-1 2
                                     1 ZN   1 1-2    1 ZN  -1 0-1    1 ZN   1 0 1
                                     1 ZN  -1 0 2    1 ZN   1 0-2    1 ZN  -1 2-1
                                     1 ZN   1-2 1    1 ZN  -1 2 0    1 ZN   1-2 0
                                     1 ZN   0-2 1    1 ZN   0 2-1    1 ZN   0-1-1
                                     1 ZN   0 1 1    1 ZN   0-1 2    1 ZN   0 1-2

   2 S    4     2.3450     4.4314    1 ZN   0 0 0    1 ZN   1 0 0    1 ZN   1 0-1
                                     1 ZN   1-1 0
   2 S   12     3.8293     7.2364    2 S   -1 0 0    2 S    1 0 0    2 S   -1 0 1
                                     2 S    1 0-1    2 S   -1 1 0    2 S    1-1 0
                                     2 S    0-1 0    2 S    0 1 0    2 S    0-1 1
                                     2 S    0 1-1    2 S    0 0-1    2 S    0 0 1
   2 S   12     4.4903     8.4854    1 ZN   0-1 0    1 ZN   0 1 0    1 ZN   0-1 1
                                     1 ZN   0 1-1    1 ZN   0 0-1    1 ZN   0 0 1
                                     1 ZN   1 1-1    1 ZN   1-1 1    1 ZN   1-1-1
                                     1 ZN   2 0-1    1 ZN   2-1 0    1 ZN   2-1-1
   2 S    6     5.4155    10.2338    2 S   -1-1 1    2 S    1 1-1    2 S   -1 1-1
                                     2 S    1-1 1    2 S   -1 1 1    2 S    1-1-1
   2 S   12     5.9014    11.1520    1 ZN  -1 0 0    1 ZN  -1 0 1    1 ZN  -1 1 0
                                     1 ZN   1 1 0    1 ZN   1 1-2    1 ZN   1 0 1
                                     1 ZN   1 0-2    1 ZN   1-2 1    1 ZN   1-2 0
                                     1 ZN   2 0 0    1 ZN   2 0-2    1 ZN   2-2 0
   2 S   24     6.6326    12.5338    2 S   -2 0 1    2 S    2 0-1    2 S   -2 1 0
                                     2 S    2-1 0    2 S   -2 1 1    2 S    2-1-1
                                     2 S   -1-1 0    2 S    1 1 0    2 S   -1-1 2
                                     2 S    1 1-2    2 S   -1 0-1    2 S    1 0 1
                                     2 S   -1 0 2    2 S    1 0-2    2 S   -1 2-1
                                     2 S    1-2 1    2 S   -1 2 0    2 S    1-2 0
                                     2 S    0-2 1    2 S    0 2-1    2 S    0-1-1
                                     2 S    0 1 1    2 S    0-1 2    2 S    0 1-2


 FINAL OPTIMIZED GEOMETRY - DIMENSIONALITY OF THE SYSTEM      3
 (NON PERIODIC DIRECTION: LATTICE PARAMETER FORMALLY SET TO 500)
 *******************************************************************************
 LATTICE PARAMETERS (ANGSTROMS AND DEGREES) - BOHR = 0.5291772083 ANGSTROM
 PRIMITIVE CELL - CENTRING CODE 5/0 VOLUME=    39.706010 - DENSITY  4.011 g/cm^3
         A              B              C           ALPHA      BETA       GAMMA 
     3.82933840     3.82933840     3.82933840    60.000000  60.000000  60.000000
 *******************************************************************************
 ATOMS IN THE ASYMMETRIC UNIT    2 - ATOMS IN THE UNIT CELL:    2
     ATOM                 X/A                 Y/B                 Z/C    
 *******************************************************************************
      1 T  30 ZN    2.500000000000E-01  2.500000000000E-01  2.500000000000E-01
      2 T  16 S     0.000000000000E+00  0.000000000000E+00  0.000000000000E+00

 TRANSFORMATION MATRIX PRIMITIVE-CRYSTALLOGRAPHIC CELL
 -1.0000  1.0000  1.0000  1.0000 -1.0000  1.0000  1.0000  1.0000 -1.0000

 *******************************************************************************
 CRYSTALLOGRAPHIC CELL (VOLUME=        158.82403803)
         A              B              C           ALPHA      BETA       GAMMA 
     5.41550230     5.41550230     5.41550230    90.000000  90.000000  90.000000

 COORDINATES IN THE CRYSTALLOGRAPHIC CELL
     ATOM                 X/A                 Y/B                 Z/C    
 *******************************************************************************
      1 T  30 ZN    2.500000000000E-01 -2.500000000000E-01 -2.500000000000E-01
      2 T  16 S     0.000000000000E+00  0.000000000000E+00  0.000000000000E+00

 T = ATOM BELONGING TO THE ASYMMETRIC UNIT
 INFORMATION **** fort.34 **** GEOMETRY OUTPUT FILE

 DIRECT LATTICE VECTORS CARTESIAN COMPONENTS (ANGSTROM)
          X                    Y                    Z
   0.000000000000E+00   0.270775114940E+01   0.270775114940E+01
   0.270775114940E+01   0.000000000000E+00   0.270775114940E+01
   0.270775114940E+01   0.270775114940E+01   0.000000000000E+00


 CARTESIAN COORDINATES - PRIMITIVE CELL
 *******************************************************************************
 *      ATOM          X(ANGSTROM)         Y(ANGSTROM)         Z(ANGSTROM)
 *******************************************************************************
    1    30 ZN    1.353875574701E+00 -1.353875574701E+00 -1.353875574701E+00
    2    16 S     0.000000000000E+00  0.000000000000E+00  0.000000000000E+00

 DFT PARAMETERS

     ATOM       ELECTRONS   NET CHARGE   R(ANGSTROM)
   1  30  ZN     30.0000      0.0000     1.37000000
   2  16  S      16.0000      0.0000     1.04000000

 SIZE OF GRID=       5688
 TTTTTTTTTTTTTTTTTTTTTTTTTTTTTT MAKE_GRID2  TELAPSE       77.90 TCPU       75.10
 BECKE WEIGHT FUNCTION
 RADSAFE =     2.00
 TOLERANCES - DENSITY:10**- 6; POTENTIAL:10**- 9; GRID WGT:10**-14

 RADIAL INTEGRATION  - INTERVALS (POINTS,UPPER LIMIT):            1( 99,  4.0*R)

 ANGULAR INTEGRATION - INTERVALS (ACCURACY LEVEL [N. POINTS] UPPER LIMIT):
  1(  6[ 146]   0.2)  2( 11[ 302]   0.5)  3( 14[ 590]   0.9)  4( 18[1454]   3.5)
  5( 14[ 590]9999.0)
 EEEEEEEEEE INT_CALC TERMINATION  DATE 05 09 2023 TIME 18:13:25.6

 *******************************************************************************
 ICSD_CollCode136503.cif                                                         
 CRYSTAL - SCF - TYPE OF CALCULATION :  RESTRICTED CLOSED SHELL
 *******************************************************************************

 CAPPA:IS1  8;IS2  8;IS3  8; K PTS MONK NET  29; SYMMOPS:K SPACE  48;G SPACE  24

 TTTTTTTTTTTTTTTTTTTTTTTTTTTTTT SDIK        TELAPSE       77.93 TCPU       75.13

 INFORMATION FROM INTEGRAL EVALUATION

 RESTART FROM A PREVIOUS DENSITY MATRIX - DEP ACTIVE
 NUMBER OF COUPLE SETS (NEW, OLD, FOUND):     291     291     291
 NUMBER OF IRREDUCIBLE G VECTORS        :    2040    2040    2040
 TTTTTTTTTTTTTTTTTTTTTTTTTTTTTT MOQGAD      TELAPSE       77.93 TCPU       75.13
 TTTTTTTTTTTTTTTTTTTTTTTTTTTTTT SHELLXN     TELAPSE       78.63 TCPU       75.82
 TTTTTTTTTTTTTTTTTTTTTTTTTTTTTT MONMO3      TELAPSE       78.63 TCPU       75.82
 NUMERICALLY INTEGRATED DENSITY     46.0000067281
 TTTTTTTTTTTTTTTTTTTTTTTTTTTTTT NUMDFT      TELAPSE       78.68 TCPU       75.87
 CYC   0 ETOT(AU) -2.177234699013E+03 DETOT -2.18E+03 tst  7.65E-17 PX  1.00E+00
 TTTTTTTTTTTTTTTTTTTTTTTTTTTTTT DIIS        TELAPSE       78.68 TCPU       75.87
 TTTTTTTTTTTTTTTTTTTTTTTTTTTTTT FDIK        TELAPSE       78.70 TCPU       75.88
 INSULATING STATE
 TOP OF VALENCE BANDS -    BAND     23; K    1; EIG -2.2203238E-01 AU
 BOTTOM OF VIRTUAL BANDS - BAND     24; K    1; EIG -5.0454104E-02 AU
 DIRECT ENERGY BAND GAP:   4.6689 eV
 TTTTTTTTTTTTTTTTTTTTTTTTTTTTTT PDIG        TELAPSE       78.71 TCPU       75.88
 TTTTTTTTTTTTTTTTTTTTTTTTTTTTTT MOQGAD      TELAPSE       78.71 TCPU       75.89
 TTTTTTTTTTTTTTTTTTTTTTTTTTTTTT SHELLXN     TELAPSE       79.41 TCPU       76.58
 TTTTTTTTTTTTTTTTTTTTTTTTTTTTTT MONMO3      TELAPSE       79.41 TCPU       76.58
 NUMERICALLY INTEGRATED DENSITY     46.0000067281
 TTTTTTTTTTTTTTTTTTTTTTTTTTTTTT NUMDFT      TELAPSE       79.46 TCPU       76.63
 CYC   1 ETOT(AU) -2.177234699013E+03 DETOT -1.05E-11 tst  0.00E+00 PX  1.57E-08
 TTTTTTTTTTTTTTTTTTTTTTTTTTTTTT DIIS        TELAPSE       79.46 TCPU       76.63
 DIIS TEST: 0.31964E-14 AT SCF   CYCLE   1 - MIX   30 %
 TTTTTTTTTTTTTTTTTTTTTTTTTTTTTT FDIK        TELAPSE       79.47 TCPU       76.64
 INSULATING STATE
 TOP OF VALENCE BANDS -    BAND     23; K    1; EIG -2.2203237E-01 AU
 BOTTOM OF VIRTUAL BANDS - BAND     24; K    1; EIG -5.0454102E-02 AU
 DIRECT ENERGY BAND GAP:   4.6689 eV
 TTTTTTTTTTTTTTTTTTTTTTTTTTTTTT PDIG        TELAPSE       79.48 TCPU       76.65
 TTTTTTTTTTTTTTTTTTTTTTTTTTTTTT MOQGAD      TELAPSE       79.48 TCPU       76.65
 TTTTTTTTTTTTTTTTTTTTTTTTTTTTTT SHELLXN     TELAPSE       80.18 TCPU       77.35
 TTTTTTTTTTTTTTTTTTTTTTTTTTTTTT MONMO3      TELAPSE       80.18 TCPU       77.35
 NUMERICALLY INTEGRATED DENSITY     46.0000067281
 TTTTTTTTTTTTTTTTTTTTTTTTTTTTTT NUMDFT      TELAPSE       80.23 TCPU       77.40
 CYC   2 ETOT(AU) -2.177234699013E+03 DETOT  6.82E-12 tst  1.35E-17 PX  9.71E-09
 TTTTTTTTTTTTTTTTTTTTTTTTTTTTTT DIIS        TELAPSE       80.23 TCPU       77.40
 DIIS TEST: 0.39512E-14 AT SCF   CYCLE   2 - DIIS ACTIVE - HISTORY:     2 CYCLES
 TTTTTTTTTTTTTTTTTTTTTTTTTTTTTT FDIK        TELAPSE       80.24 TCPU       77.40
 INSULATING STATE
 TOP OF VALENCE BANDS -    BAND     23; K    1; EIG -2.2203237E-01 AU
 BOTTOM OF VIRTUAL BANDS - BAND     24; K    1; EIG -5.0454102E-02 AU
 DIRECT ENERGY BAND GAP:   4.6689 eV
 TTTTTTTTTTTTTTTTTTTTTTTTTTTTTT PDIG        TELAPSE       80.25 TCPU       77.41
 TTTTTTTTTTTTTTTTTTTTTTTTTTTTTT MOQGAD      TELAPSE       80.25 TCPU       77.41
 TTTTTTTTTTTTTTTTTTTTTTTTTTTTTT SHELLXN     TELAPSE       80.95 TCPU       78.11
 ::: PSEUDO TOTAL   ENERGY                        -2.1042966723865E+03
 ::: VIRIAL COEFFICIENT                            1.0164141699153E+00
 TTTTTTTTTTTTTTTTTTTTTTTTTTTTTT MONMO3      TELAPSE       80.95 TCPU       78.11
 NUMERICALLY INTEGRATED DENSITY     46.0000067281
 EXCHANGE ENERGY: -0.708549709227E+02  CORRELATION ENERGY: -0.208305570390E+01
 TTTTTTTTTTTTTTTTTTTTTTTTTTTTTT NUMDFT      TELAPSE       81.00 TCPU       78.16
 CYC   3 ETOT(AU) -2.177234699013E+03 DETOT  2.27E-12 tst  3.75E-18 PX  9.71E-09

 == SCF ENDED - CONVERGENCE ON ENERGY      E(AU) -2.1772346990131E+03 CYCLES   3


 ENERGY EXPRESSION=HARTREE+FOCK EXCH*0.25000+(PBE        EXCH)*0.75000+PBE        CORR


 TOTAL ENERGY(DFT)(AU)(  3) -2.1772346990131E+03 DE 2.3E-12 tester 3.8E-18
 TTTTTTTTTTTTTTTTTTTTTTTTTTTTTT EDFT        TELAPSE       81.00 TCPU       78.16
 INSULATING STATE
 TOP OF VALENCE BANDS -    BAND     23; K    1; EIG -2.2203237E-01 AU
 BOTTOM OF VIRTUAL BANDS - BAND     24; K    1; EIG -5.0454103E-02 AU
 DIRECT ENERGY BAND GAP:   4.6689 eV
 EIGENVECTORS IN FORTRAN UNIT  8
 EEEEEEEEEE SCF TERMINATION  DATE 05 09 2023 TIME 18:13:28.8

     *********************************************************************
     * ***************************************************************** *
     * *        COUPLED-PERTURBED KOHN-SHAM CALCULATION (CPKS)         * *
     * *        REFERENCES TO BE QUOTED WHEN USING THIS MODULE:        * *
     * *        (1) M. Ferrero, M. Rerat, R. Orlando, R.Dovesi,        * *
     * *            J. Comput. Chem. 29 (2008), 1450;                  * *
     * *            J. Chem. Phys. 128 (2008), 014110.                 * *
     * *        (2) M. Ferrero, M. Rerat, B. Kirtman, R. Dovesi,       * *
     * *            J. Chem. Phys. 129 (2008), 244110.                 * *
     * ***************************************************************** *
     *********************************************************************

 INFORMATION **** CP_DRIVER **** CONVERGENCE ON ALPHA: 10**          -3
 INFORMATION **** CP_DRIVER **** MAX NUMBER OF CPHF/CPKS CYCLES         200
 INFORMATION **** CP_DRIVER **** CPHF/CPKS DAMPING PERCENTAGE:          60
 STATIC FIELD (OR H*NU < 1E-15 HA)

 *******************************************************************************

 ELECTRIC FIELD APPLIED ALONG CARTESIAN DIRECTION X

 *******************************************************************************
 THE NUMBER OF SYMMETRY OPERATORS HAS BEEN REDUCED FROM 24 TO  1

 NEW GRID IN RECIPROCAL SPACE
 *******************************************************************************
 POINTS IN THE IBZ                 260 SHRINKING FACTORS               8  8  8
 *******************************************************************************
 *** K POINTS COORDINATES (OBLIQUE COORDINATES IN UNITS OF SHRINK FAC. )
   1-R(  0  0  0)   2-C(  1  0  0)   3-C(  0  1  0)   4-C(  7  7  7)
   5-C(  0  0  1)   6-C(  2  0  0)   7-C(  0  2  0)   8-C(  6  6  6)
   9-C(  0  0  2)  10-C(  3  0  0)  11-C(  0  3  0)  12-C(  5  5  5)
  13-C(  0  0  3)  14-R(  4  0  0)  15-R(  0  4  0)  16-R(  4  4  4)
  17-R(  0  0  4)  18-C(  1  1  0)  19-C(  0  1  1)  20-C(  1  0  1)
  21-C(  2  1  0)  22-C(  1  2  0)  23-C(  6  6  7)  24-C(  7  7  1)
  25-C(  0  2  1)  26-C(  1  0  2)  27-C(  1  7  7)  28-C(  2  0  1)
  29-C(  0  1  2)  30-C(  6  7  6)  31-C(  7  6  6)  32-C(  7  1  7)
  33-C(  3  1  0)  34-C(  1  3  0)  35-C(  5  5  6)  36-C(  7  7  2)
  37-C(  0  3  1)  38-C(  1  0  3)  39-C(  2  7  7)  40-C(  3  0  1)
  41-C(  0  1  3)  42-C(  5  6  5)  43-C(  6  5  5)  44-C(  7  2  7)
  45-C(  4  1  0)  46-C(  1  4  0)  47-C(  4  4  5)  48-C(  7  7  3)
  49-C(  0  4  1)  50-C(  1  0  4)  51-C(  3  7  7)  52-C(  4  0  1)
  53-C(  0  1  4)  54-C(  4  5  4)  55-C(  5  4  4)  56-C(  7  3  7)
  57-C(  5  1  0)  58-C(  1  5  0)  59-C(  3  3  4)  60-C(  7  7  4)
  61-C(  0  5  1)  62-C(  1  0  5)  63-C(  4  7  7)  64-C(  5  0  1)
  65-C(  0  1  5)  66-C(  3  4  3)  67-C(  4  3  3)  68-C(  7  4  7)
  69-C(  6  1  0)  70-C(  1  6  0)  71-C(  2  2  3)  72-C(  7  7  5)
  73-C(  0  6  1)  74-C(  1  0  6)  75-C(  5  7  7)  76-C(  6  0  1)
  77-C(  0  1  6)  78-C(  2  3  2)  79-C(  3  2  2)  80-C(  7  5  7)
  81-C(  7  1  0)  82-C(  1  1  2)  83-C(  0  7  1)  84-C(  1  0  7)
  85-C(  6  7  7)  86-C(  1  2  1)  87-C(  2  2  0)  88-C(  0  2  2)
  89-C(  2  0  2)  90-C(  3  2  0)  91-C(  2  3  0)  92-C(  5  5  7)
  93-C(  6  6  1)  94-C(  0  3  2)  95-C(  2  0  3)  96-C(  1  6  6)
  97-C(  3  0  2)  98-C(  0  2  3)  99-C(  5  7  5) 100-C(  7  5  5)
 101-C(  6  1  6) 102-C(  4  2  0) 103-C(  2  4  0) 104-C(  4  4  6)
 105-C(  6  6  2) 106-C(  0  4  2) 107-C(  2  0  4) 108-C(  2  6  6)
 109-C(  4  0  2) 110-C(  0  2  4) 111-C(  4  6  4) 112-C(  6  4  4)
 113-C(  6  2  6) 114-C(  5  2  0) 115-C(  2  5  0) 116-C(  3  3  5)
 117-C(  6  6  3) 118-C(  0  5  2) 119-C(  2  0  5) 120-C(  3  6  6)
 121-C(  5  0  2) 122-C(  0  2  5) 123-C(  3  5  3) 124-C(  5  3  3)
 125-C(  6  3  6) 126-C(  6  2  0) 127-C(  2  2  4) 128-C(  0  6  2)
 129-C(  2  0  6) 130-C(  4  6  6) 131-C(  2  4  2) 132-C(  3  3  0)
 133-C(  0  3  3) 134-C(  3  0  3) 135-C(  4  3  0) 136-C(  3  4  0)
 137-C(  4  4  7) 138-C(  5  5  1) 139-C(  0  4  3) 140-C(  3  0  4)
 141-C(  1  5  5) 142-C(  4  0  3) 143-C(  0  3  4) 144-C(  4  7  4)
 145-C(  7  4  4) 146-C(  5  1  5) 147-C(  5  3  0) 148-C(  3  3  6)
 149-C(  0  5  3) 150-C(  3  0  5) 151-C(  2  5  5) 152-C(  3  6  3)
 153-R(  4  4  0) 154-R(  0  4  4) 155-R(  4  0  4) 156-C(  3  2  1)
 157-C(  1  2  7) 158-C(  1  3  2) 159-C(  2  1  3) 160-C(  1  7  6)
 161-C(  2  7  1) 162-C(  2  3  1) 163-C(  2  1  7) 164-C(  3  1  2)
 165-C(  1  2  3) 166-C(  7  1  6) 167-C(  7  2  1) 168-C(  4  2  1)
 169-C(  1  3  7) 170-C(  4  5  6) 171-C(  7  6  2) 172-C(  1  4  2)
 173-C(  2  1  4) 174-C(  2  7  6) 175-C(  3  7  1) 176-C(  7  1  3)
 177-C(  5  6  4) 178-C(  6  4  5) 179-C(  6  2  7) 180-C(  2  4  1)
 181-C(  3  1  7) 182-C(  5  4  6) 183-C(  6  7  2) 184-C(  4  1  2)
 185-C(  1  2  4) 186-C(  7  2  6) 187-C(  7  3  1) 188-C(  1  7  3)
 189-C(  6  5  4) 190-C(  4  6  5) 191-C(  2  6  7) 192-C(  5  2  1)
 193-C(  1  4  7) 194-C(  3  4  5) 195-C(  7  6  3) 196-C(  1  5  2)
 197-C(  2  1  5) 198-C(  3  7  6) 199-C(  4  7  1) 200-C(  7  1  4)
 201-C(  4  5  3) 202-C(  5  3  4) 203-C(  6  3  7) 204-C(  4  3  1)
 205-C(  2  3  7) 206-C(  1  4  3) 207-C(  3  1  4) 208-C(  1  6  5)
 209-C(  3  7  2) 210-C(  3  4  1) 211-C(  3  2  7) 212-C(  4  1  3)
 213-C(  1  3  4) 214-C(  6  1  5) 215-C(  7  3  2) 216-C(  5  3  1)
 217-C(  2  4  7) 218-C(  3  4  6) 219-C(  6  5  2) 220-C(  1  5  3)
 221-C(  3  1  5) 222-C(  2  6  5) 223-C(  4  7  2) 224-C(  7  2  4)
 225-C(  4  6  3) 226-C(  6  3  4) 227-C(  5  2  6) 228-C(  3  5  1)
 229-C(  4  2  7) 230-C(  4  3  6) 231-C(  5  6  2) 232-C(  5  1  3)
 233-C(  1  3  5) 234-C(  6  2  5) 235-C(  7  4  2) 236-C(  2  7  4)
 237-C(  6  4  3) 238-C(  3  6  4) 239-C(  2  5  6) 240-C(  6  3  1)
 241-C(  2  3  5) 242-C(  1  6  3) 243-C(  3  1  6) 244-C(  3  6  5)
 245-C(  3  5  2) 246-C(  3  6  1) 247-C(  3  2  5) 248-C(  6  1  3)
 249-C(  1  3  6) 250-C(  6  3  5) 251-C(  5  3  2) 252-C(  5  4  1)
 253-C(  1  5  4) 254-C(  4  1  5) 255-C(  4  5  1) 256-C(  5  1  4)
 257-C(  1  4  5) 258-C(  6  4  2) 259-C(  2  6  4) 260-C(  4  2  6)

 GCALCO - MAX INDICES DIRECT LATTICE VECTOR    14    14    14
 NO.OF VECTORS CREATED 6999 STARS  105 RMAX    76.58287 BOHR
 TTTTTTTTTTTTTTTTTTTTTTTTTTTTTT gordsh1     TELAPSE       81.13 TCPU       78.27

 MATRIX SIZE: P(G)  264084, F(G)   20347, P(G) IRR  139930, F(G) IRR   21152
 MAX G-VECTOR INDEX FOR 1- AND 2-ELECTRON INTEGRALS 677

 TTTTTTTTTTTTTTTTTTTTTTTTTTTTTT INPUT       TELAPSE       81.13 TCPU       78.27
 TTTTTTTTTTTTTTTTTTTTTTTTTTTTTT SYMM        TELAPSE       81.13 TCPU       78.27

 ***** NEW REFERENCE GEOMETRY *****
 TTTTTTTTTTTTTTTTTTTTTTTTTTTTTT INT_SCREEN  TELAPSE       81.14 TCPU       78.27

 DFT PARAMETERS

     ATOM       ELECTRONS   NET CHARGE   R(ANGSTROM)
   1  30  ZN     30.0000      0.0000     1.37000000
   2  16  S      16.0000      0.0000     1.04000000

 SIZE OF GRID=      99162
 TTTTTTTTTTTTTTTTTTTTTTTTTTTTTT MAKE_GRID2  TELAPSE       83.25 TCPU       80.37
 BECKE WEIGHT FUNCTION
 RADSAFE =     2.00
 TOLERANCES - DENSITY:10**- 6; POTENTIAL:10**- 9; GRID WGT:10**-14

 RADIAL INTEGRATION  - INTERVALS (POINTS,UPPER LIMIT):            1( 99,  4.0*R)

 ANGULAR INTEGRATION - INTERVALS (ACCURACY LEVEL [N. POINTS] UPPER LIMIT):
  1(  6[ 146]   0.2)  2( 11[ 302]   0.5)  3( 14[ 590]   0.9)  4( 18[1454]   3.5)
  5( 14[ 590]9999.0)
 CYCLE   0   ALPHA   58.331826  EPSILON    3.735663  DELTA    5.8332E+01
 TTTTTTTTTTTTTTTTTTTTTTTTTTTTTT MOQGAD      TELAPSE       84.26 TCPU       81.38
 TTTTTTTTTTTTTTTTTTTTTTTTTTTTTT CP_MONMON   TELAPSE       84.31 TCPU       81.43
 DIIS TEST: 0.15262E+01 AT CPHF  CYCLE   1 - MIX   60 %
 CYCLE   1   ALPHA   60.787201  EPSILON    3.850816  DELTA    2.4554E+00
 TTTTTTTTTTTTTTTTTTTTTTTTTTTTTT MOQGAD      TELAPSE       85.26 TCPU       82.36
 TTTTTTTTTTTTTTTTTTTTTTTTTTTTTT CP_MONMON   TELAPSE       85.31 TCPU       82.41
 DIIS TEST: 0.26019E+00 AT CPHF  CYCLE   2 - DIIS ACTIVE - HISTORY:     2 CYCLES
 CYCLE   2   ALPHA   64.207876  EPSILON    4.011240  DELTA    3.4207E+00
 TTTTTTTTTTTTTTTTTTTTTTTTTTTTTT MOQGAD      TELAPSE       86.25 TCPU       83.35
 TTTTTTTTTTTTTTTTTTTTTTTTTTTTTT CP_MONMON   TELAPSE       86.30 TCPU       83.40
 DIIS TEST: 0.11933E-01 AT CPHF  CYCLE   3 - DIIS ACTIVE - HISTORY:     3 CYCLES
 CYCLE   3   ALPHA   64.643650  EPSILON    4.031677  DELTA    4.3577E-01
 TTTTTTTTTTTTTTTTTTTTTTTTTTTTTT MOQGAD      TELAPSE       87.24 TCPU       84.33
 TTTTTTTTTTTTTTTTTTTTTTTTTTTTTT CP_MONMON   TELAPSE       87.29 TCPU       84.38
 DIIS TEST: 0.42162E-04 AT CPHF  CYCLE   4 - DIIS ACTIVE - HISTORY:     4 CYCLES
 CYCLE   4   ALPHA   64.645264  EPSILON    4.031752  DELTA    1.6131E-03
 TTTTTTTTTTTTTTTTTTTTTTTTTTTTTT MOQGAD      TELAPSE       88.23 TCPU       85.31
 TTTTTTTTTTTTTTTTTTTTTTTTTTTTTT CP_MONMON   TELAPSE       88.28 TCPU       85.36
 DIIS TEST: 0.12030E-05 AT CPHF  CYCLE   5 - DIIS ACTIVE - HISTORY:     5 CYCLES
 CYCLE   5   ALPHA   64.649145  EPSILON    4.031934  DELTA    3.8814E-03
 TTTTTTTTTTTTTTTTTTTTTTTTTTTTTT MOQGAD      TELAPSE       89.23 TCPU       86.30
[...]
     ZZZZ    9.3201E+04 (   9.3201E+04)   7.2850E+02   6.8876E+00   4.9261E+00

 *******************************************************************************
 SECOND HYPERPOLARIZABILITY (GAMMA) IS RELATED TO THIRD ELECTRIC
         SUSCEPTIBILITY (CHI(3)) AS FOLLOWS:

                             CHI(3)=GAMMA*2PI/(3V)

         IN THE PRESENT CASE 2PI/3V =      0.0078

         GAMMA AND CHI(3) ARE EXPRESSED IN M^(-1)*L^4*T^2 AND IN F^(-2),
         RESPECTIVELY (L=LENGTH, M=MASS, T=TIME, F=FIELD). ATOMIC UNITS
         ARE USED.

         ELECTRIC SUSCEPTIBILITY IN THE THIRD HARMONIC GENERATION ( THG )
         CONVENTION IS CHI(3)(THG)=(1/4)*CHI(3).

              g(MKS)=CHI(3)(THG)*5.14220632^(-2)   (10^(-22) m^2/V^2)

              g(CGS)=CHI(3)(THG)*1.7152535^(-2)   (10^(-14) esu)

         (5.14220632*10^(11))^(-2) AND (4PI*1.7152535*10^7)^(-2) ARE THE CON-
         VERSION FACTORS FOR OBTAINING CHI(3)(THG) IN m^2/V^2 (MKS) AND
         esu (CGS), RESPECTIVELY: A FIELD WITH 1 A.U. MODULUS

                                  F=Q/(4PI*E0*R^2)

         CORRESPONDS TO  0.514220632*10^(12) V/m  (OR 1.7152535*10^7 esu),
         THEREFORE, CHI(3)(THG) IN MKS (OR CGS) CAN BE OBTAINED DIVIDING
         THE A.U. VALUE BY THE SQUARE OF THIS NUMBER.
         BECAUSE OF A SLIGHT DIFFERENCE IN DEFINITION

                             CHI(3)=P/(E0*F^3)   (MKS)

                             CHI(3)=P/F^3        (CGS)

         WHERE P IS  THE  POLARIZATION  VECTOR AND F THE APPLIED ELECTRIC
         FIELD, CONSISTENCY IS  PRESERVED BY MULTIPLYING THE CGS VALUE FOR
         THE CONSTANT PERMITTIVITY OF THE VACUUM, E0=1/(4PI).

         FOR REFERENCES ABOUT UNITS AND CONVERSION FACTORS CONSULT THE WEB
         SITE www.physics.nist.gov/constants.


 GCALCO - MAX INDICES DIRECT LATTICE VECTOR    14    14    14
 NO.OF VECTORS CREATED 6999 STARS  105 RMAX    76.58287 BOHR

 CAPPA:IS1  8;IS2  8;IS3  8; K PTS MONK NET  29; SYMMOPS:K SPACE  48;G SPACE  24

 TTTTTTTTTTTTTTTTTTTTTTTTTTTTTT gordsh1     TELAPSE      200.04 TCPU      195.95

 MATRIX SIZE: P(G)  264084, F(G)   20347, P(G) IRR   12610, F(G) IRR    3396
 MAX G-VECTOR INDEX FOR 1- AND 2-ELECTRON INTEGRALS 677

 TTTTTTTTTTTTTTTTTTTTTTTTTTTTTT INPUT       TELAPSE      200.04 TCPU      195.95

 THERE ARE NO SYMMETRY ALLOWED DIRECTIONS
 TTTTTTTTTTTTTTTTTTTTTTTTTTTTTT SYMM        TELAPSE      200.06 TCPU      195.98
 TTTTTTTTTTTTTTTTTTTTTTTTTTTTTT INT_SCREEN  TELAPSE      200.06 TCPU      195.98

 COMPUTING IR TENSOR ALONG DIRECTION X
 COMPUTING IR TENSOR ALONG DIRECTION Y
 COMPUTING IR TENSOR ALONG DIRECTION Z

 TTTTTTTTTTTTTTTTTTTTTTTTTTTTTT IR TENSOR   TELAPSE      374.00 TCPU      368.96

 COMPUTING RAMAN TENSOR ALONG DIRECTION XX
 COMPUTING RAMAN TENSOR ALONG DIRECTION XY
 COMPUTING RAMAN TENSOR ALONG DIRECTION XZ
 COMPUTING RAMAN TENSOR ALONG DIRECTION YY
 COMPUTING RAMAN TENSOR ALONG DIRECTION YZ
 COMPUTING RAMAN TENSOR ALONG DIRECTION ZZ


 GCALCO - MAX INDICES DIRECT LATTICE VECTOR    14    14    14
 NO.OF VECTORS CREATED 6999 STARS  105 RMAX    76.58287 BOHR

 CAPPA:IS1  8;IS2  8;IS3  8; K PTS MONK NET  29; SYMMOPS:K SPACE  48;G SPACE  24

 TTTTTTTTTTTTTTTTTTTTTTTTTTTTTT gordsh1     TELAPSE      967.62 TCPU      958.89

 MATRIX SIZE: P(G)  264084, F(G)   20347, P(G) IRR   12610, F(G) IRR    3396
 MAX G-VECTOR INDEX FOR 1- AND 2-ELECTRON INTEGRALS 677

 TTTTTTTTTTTTTTTTTTTTTTTTTTTTTT INPUT       TELAPSE      967.62 TCPU      958.89

 THERE ARE NO SYMMETRY ALLOWED DIRECTIONS
 TTTTTTTTTTTTTTTTTTTTTTTTTTTTTT SYMM        TELAPSE      967.65 TCPU      958.92
 TTTTTTTTTTTTTTTTTTTTTTTTTTTTTT INT_SCREEN  TELAPSE      967.65 TCPU      958.92
 TTTTTTTTTTTTTTTTTTTTTTTTTTTTTT RAMAN       TELAPSE      967.66 TCPU      958.92


 *******************************************************************************
 *                                                                             *
 *                                                                             *
 *         FFFFF  RRRR   EEEE   QQQ   U   U  EEEE  N   N   CCC  Y   Y          *
 *         F      R   R  E     Q   Q  U   U  E     NN  N  C      Y Y           *
 *         FFF    RRRR   EEEE  Q   Q  U   U  EEEE  N N N  C       Y            *
 *         F      R   R  E     Q  QQ  U   U  E     N  NN  C       Y            *
 *         F      R   R  EEEE   QQ Q   UUU   EEEE  N   N   CCC    Y            *
 *                                                                             *
 *                                                                             *
 * CALCULATION OF PHONON FREQUENCIES AT THE GAMMA POINT.                       *
 *                                                                             *
 * SYMMETRY IS EXPLOITED TO BUILD THE TOTAL HESSIAN MATRIX.                    *
 * (F. PASCALE PHD THESIS TURIN-PARIS 2002)                                    *
 *                                                                             *
 *******************************************************************************


 * INTENSITIES COMPUTED VIA THE CPHF ANALYTICAL APPROACH                       *
 *                                                                             *
 * REFERENCES TO BE QUOTED WHEN USING THIS MODULE:                             *
 *                                                                             *
 * F. Pascale, C.M. Zicovich-Wilson, F. Lopez, B. Civalleri                    *
 * R. Orlando, R. Dovesi                                                       *
 * The calculation of the vibration frequencies of crystalline                 *
 * compounds and its implementation in the CRYSTAL code                        *
 * J. Comput. Chem. 25 (2004) 888-897                                          *
 *                                                                             *
 * C.M. Zicovich-Wilson, F. Pascale, C. Roetti, V.R. Saunders,                 *
 * R. Orlando, R. Dovesi                                                       *
 * The calculation of the vibration frequencies of alpha-quartz:               *
 * the effect of hamiltonian and basis set                                     *
 * J. Comput. Chem. 25 (2004) 1873-1881                                        *
 *******************************************************************************


 *                                                                             *
 * FOR THE ANALYTICAL IR INTENSITIES MODULE PLEASE CITE:                       *
 *                                                                             *
 * L. Maschio, B. Kirtman, R. Orlando, M. Rerat,                               *
 * Ab initio analytical infrared intensities for periodic systems              *
 * through a coupled perturbed Hartree-Fock/Kohn-Sham method                   *
 * J. Chem. Phys. 137, 204113 (2012)                                           *
 *******************************************************************************



 ATOMS ISOTOPIC MASS (AMU) FOR FREQUENCY CALCULATION 

    1 ZN     63.9291    2 S      31.9721

 INFORMATION CONCERNING THE SCF+GRADIENT CALCULATIONS REQUIRED FOR
 GENERATING FREQUENCIES. IN PRINCIPLE 3N+1 SCF + GRADIENT
 CALCULATIONS  ARE REQUIRED;
 FOR EACH OF THEM THE REMAINING POINT SYMMETRY IS INDICATED.
 POINT SYMMETRY PERMITS TO GENERATE GRADIENTS FOR DISPLACEMENT B 
 STARTING FROM THE GRADIENT GENERATED BY DISPLACEMENT A.

   N   LABEL SYMBOL DISPLACEMENT     SYM. 

   1     EQUILIBRIUM GEOMETRY           24

   2      1   ZN           DX        GENERATED BY TRANSLATIONAL INVARIANCE
   3      1   ZN           DY        GENERATED BY TRANSLATIONAL INVARIANCE
   4      1   ZN           DZ        GENERATED BY TRANSLATIONAL INVARIANCE
   5      2   S            DX           4
   6      2   S            DY        GENERATED FROM LINE X WITH OP   6
   7      2   S            DZ        GENERATED FROM LINE X WITH OP   5
 USE OF RESIDUAL SYMMETRY AFTER DISPLACEMENT

 NUMERICAL GRADIENT COMPUTED WITH A SINGLE DISPLACEMENT (+DX) FOR EACH
 CARTESIAN COORDINATE WITH RESPECT TO THE EQUILIBRIUM CONFIGURATION
 DX=  0.003 ANGSTROM
 NUMBER OF IRREDUCIBLE ATOMS                     2
 NUMBER OF SCF+GRADIENT CALCULATIONS             2

  ATOM  SYMOP  ORDER
    1     24      4
    2     24      4

 ATOM  : IRREDUCIBLE ATOM
 SYMOP : NUMBER OF SYMMETRY OPERATORS THAT DOESN'T MOVE THE IRREDUCIBLE ATOM
 ORDER : MAXIMUM ORDER AMONG THE OPERATORS OF THE IRREDUCIBLE ATOM

 *******************************************************************************

 TTTTTTTTTTTTTTTTTTTTTTTTTTTTTT gordsh1     TELAPSE      967.66 TCPU      958.93

 MATRIX SIZE: P(G)  264084, F(G)   20347, P(G) IRR   12610, F(G) IRR    3396
 MAX G-VECTOR INDEX FOR 1- AND 2-ELECTRON INTEGRALS 677

 TTTTTTTTTTTTTTTTTTTTTTTTTTTTTT INPUT       TELAPSE      967.66 TCPU      958.93

 THERE ARE NO SYMMETRY ALLOWED DIRECTIONS
 TTTTTTTTTTTTTTTTTTTTTTTTTTTTTT SYMM        TELAPSE      967.67 TCPU      958.93
 TTTTTTTTTTTTTTTTTTTTTTTTTTTTTT INT_SCREEN  TELAPSE      967.67 TCPU      958.93

 HHHHHHHHHHHHHHHHHHHHHHHHHHHHHHHHHHHHHHHHHHHHHHHHHHHHHHHHHHHHHHHHHHHHHHHHHHHHHHH
                   FORCE CONSTANT MATRIX - NUMERICAL ESTIMATE
 HHHHHHHHHHHHHHHHHHHHHHHHHHHHHHHHHHHHHHHHHHHHHHHHHHHHHHHHHHHHHHHHHHHHHHHHHHHHHHH
 MAX ABS(DGRAD): MAXIMUM ABSOLUTE GRADIENT DIFFERENCE WITH RESPECT TO
                 THE CENTRAL POINT
 DE:             ENERGY DIFFERENCE WITH RESPECT TO THE CENTRAL POINT
                 (DE IS EXPECTED TO BE POSITIVE FOR ALL DISPLACEMENTS)

   ATOM      MAX ABS(DGRAD)       TOTAL ENERGY (AU)  N.CYC      DE       SYM
    CENTRAL POINT             -2.177234699013E+03     0     0.0000E+00    24
    2 S  DX   4.1782E-04      -2.177234697719E+03    10     1.2943E-06     4
    2 S  DY                   GENERATED FROM A PREVIOUS LINE
    2 S  DZ                   GENERATED FROM A PREVIOUS LINE

 GCALCO - MAX INDICES DIRECT LATTICE VECTOR    14    14    14
 NO.OF VECTORS CREATED 6999 STARS  105 RMAX    76.58287 BOHR

 CAPPA:IS1  8;IS2  8;IS3  8; K PTS MONK NET  29; SYMMOPS:K SPACE  48;G SPACE  24

 TTTTTTTTTTTTTTTTTTTTTTTTTTTTTT gordsh1     TELAPSE     1008.42 TCPU      999.32

 MATRIX SIZE: P(G)  264084, F(G)   20347, P(G) IRR   12610, F(G) IRR    3396
 MAX G-VECTOR INDEX FOR 1- AND 2-ELECTRON INTEGRALS 677

 TTTTTTTTTTTTTTTTTTTTTTTTTTTTTT INPUT       TELAPSE     1008.42 TCPU      999.32

 THERE ARE NO SYMMETRY ALLOWED DIRECTIONS
 TTTTTTTTTTTTTTTTTTTTTTTTTTTTTT SYMM        TELAPSE     1008.44 TCPU      999.34
 TTTTTTTTTTTTTTTTTTTTTTTTTTTTTT INT_SCREEN  TELAPSE     1008.44 TCPU      999.34

 ATOMIC BORN CHARGE TENSOR (UNITS OF e, ELECTRON CHARGE).
 DYNAMIC CHARGE = 1/3 * TRACE .

 ATOM   1 ZN DYNAMIC CHARGE     2.033829

              1           2           3
   1     2.0338E+00  1.4592E-23  7.4634E-24
   2     6.6174E-24  2.0338E+00  1.0180E-23
   3     1.3235E-23  1.0183E-23  2.0338E+00

 ATOM   2 S  DYNAMIC CHARGE    -2.033829

              1           2           3
   1    -2.0338E+00 -1.4592E-23 -7.4634E-24
   2    -6.6174E-24 -2.0338E+00 -1.0180E-23
   3    -1.3235E-23 -1.0183E-23 -2.0338E+00

 +++ SYMMETRY ADAPTION OF VIBRATIONAL MODES +++

 SYMMETRY INFORMATION:
 K-LITTLE GROUP: CLASS TABLE, CHARACTER TABLE.
 IRREP-(DIMENSION, NO. IRREDUCIBLE SETS)
 [WARNINGS: (1) ONLY ACTIVE IRREPS ARE GENERATED AND LISTED.
            (2) ONLY RELEVANT CLASSES ARE CONSIDERED IN THE CHARACTER TABLE
            (3) SYMBOLS MAY NOT FULLY COINCIDE WITH THOSE FROM TEXT BOOKS.]

 (P, D, RP, RD, STAND FOR PAIRING, DOUBLING, REAL PAIRING AND REAL DOUBLING 
 OF THE IRREPS (SEE MANUAL))

 CLASS  | GROUP OPERATORS (SEE SYMMOPS KEYWORD)
 --------------------------------------------------------------------
 C2     |   2;   3;   4;
 C3     |   5;  11;   7;   9;   6;  12;  10;   8;
 SGD    |  13;  14;  17;  18;  23;  24;
 S4     |  15;  16;  19;  20;  21;  22;

 IRREP/CLA      E     C2     C3    SGD     S4
 --------------------------------------------
  MULTIP |      1      3      8      6      6
 --------------------------------------------
    F    |   3.00  -1.00   0.00   1.00  -1.00

 F  -(3,   2);


 BORN CHARGE VECTOR IN THE BASIS OF NORMAL MODES (UNITS OF e*M_E**(-1/2) ).
 e AND M_E ARE UNITS OF ELECTRON CHARGE AND MASS, RESPECTIVELY.

 MODE         X              Y              Z
   1    0.13053E-17    0.43019E-41    0.86038E-41
   2    0.12956E-40    0.21624E-17    0.90807E-41
   3    0.11212E-40    0.18403E-40    0.32465E-17
   4   -0.74031E-25   -0.10318E-01   -0.51663E-25
   5   -0.10318E-01   -0.33573E-25   -0.67146E-25
   6   -0.37865E-25   -0.51649E-25   -0.10318E-01

 HHHHHHHHHHHHHHHHHHHHHHHHHHHHHHHHHHHHHHHHHHHHHHHHHHHHHHHHHHHHHHHHHHHHHHHHHHHHHH
 VIBRATIONAL CONTRIBUTIONS TO THE STATIC DIELECTRIC TENSOR (OSCILLATOR
 STRENGTHS) ARE PURE NUMBERS. THEY ARE COMPUTED FOR EACH nth MODE AS:

   f_(n,ij) = 1 / (4 * pi * eps0) * 4 * pi / V * Z_(n,i) * Z_(n,j) / nu_n**2

 WHERE:
  1/(4*pi*eps0)  1 A.U. [M*L**3*T**(-4)*C**(-2)]
  V              CELL VOLUME (BOHR**3) [L**3]
  Z_(n,i)        ith COMPONENT OF BORN CHARGE VECTOR IN THE BASIS
                 OF NORMAL MODES ( e*M_E**(-1/2) ) [C*T*M**(-1/2)]
  nu_n           FREQUENCY (HARTREE) [T**(-1)]
  e, M_E         UNITS OF ELECTRON CHARGE AND MASS, RESPECTIVELY
  M, L, T, C     MASS, LENGTH, TIME, CURRENT, RESPECTIVELY

 HHHHHHHHHHHHHHHHHHHHHHHHHHHHHHHHHHHHHHHHHHHHHHHHHHHHHHHHHHHHHHHHHHHHHHHHHHHHHH

 MODE      CARTESIAN AXES SYSTEM

   4       0.00000    0.00000    0.00000
           0.00000    2.63216    0.00000
           0.00000    0.00000    0.00000

   5       2.63216    0.00000    0.00000
           0.00000    0.00000    0.00000
           0.00000    0.00000    0.00000

   6       0.00000    0.00000    0.00000
           0.00000    0.00000    0.00000
           0.00000    0.00000    2.63216

 SUM TENSOR OF THE VIBRATIONAL CONTRIBUTIONS TO THE STATIC DIELECTRIC     TENSOR

           2.63216    0.00000    0.00000
           0.00000    2.63216    0.00000
           0.00000    0.00000    2.63216

 INTEGRATED IR INTENSITIES, IN UNITS OF KM/MOL, ARE COMPUTED UNDER THE
 HYPOTHESIS OF ISOTROPIC RESPONSE (I.E. POWDER SAMPLE):

   INTENS_n = 1 / (4 * pi * eps0) * pi * N_AV / 3 / c**2 *
                             * d_n * ( Z_(n,x)**2 + Z_(n,y)**2 + Z_(n,z)**2 )
            = 0.17770712E+07 * d_n * ( Z_(n,x)**2 + Z_(n,y)**2 + Z_(n,z)**2 )

 WHERE:
  1/(4*pi*eps0)  1 A.U. [M*L**3*T**(-4)*C**(-2)]
  N_AV           AVOGADRO'S NUMBER [QM**(-1)]
  c              SPEED OF LIGHT [L*T**(-1)]
  d_n            DEGENERACY OF THE MODE
  Z_(n,x)        xth COMPONENT OF BORN CHARGE VECTOR IN THE BASIS
                 OF NORMAL MODES ( e*M_E**(-1/2) ) [C*T*M**(-1/2)]
  M,L,T,C,QM     MASS, LENGTH, TIME, CURRENT, QUANTITY OF MATTER, RESPECTIVELY

 HHHHHHHHHHHHHHHHHHHHHHHHHHHHHHHHHHHHHHHHHHHHHHHHHHHHHHHHHHHHHHHHHHHHHHHHHHHHHH
 EIGENVALUES (EIGV) OF THE MASS WEIGHTED HESSIAN MATRIX AND HARMONIC TRANSVERSE
 OPTICAL (TO) FREQUENCIES. IRREP LABELS REFER TO SYMMETRY REPRESENTATION
 ANALYSIS; A AND I INDICATE WHETHER THE MODE IS ACTIVE OR INACTIVE,
 RESPECTIVELY, FOR IR AND RAMAN; INTEGRATED IR INTENSITIES IN BRACKETS.

 CONVERSION FACTORS FOR FREQUENCIES:
      1 CM**(-1) =   0.4556335E-05 HARTREE
      1 THZ      =   0.3335641E+02 CM**(-1)

 HHHHHHHHHHHHHHHHHHHHHHHHHHHHHHHHHHHHHHHHHHHHHHHHHHHHHHHHHHHHHHHHHHHHHHHHHHHHHH

    MODES         EIGV          FREQUENCIES     IRREP  IR   INTENS    RAMAN
             (HARTREE**2)   (CM**-1)     (THZ)             (KM/MOL)
    1-   3   -0.1178E-21      0.0000    0.0000  (F  )   A (     0.00)   A
    4-   6    0.1897E-05    302.2861    9.0623  (F  )   A (   567.61)   A

 <RAMAN><RAMAN><RAMAN><RAMAN><RAMAN><RAMAN><RAMAN><RAMAN><RAMAN><RAMAN><RAMAN>
 <RAMAN><RAMAN><RAMAN><RAMAN><RAMAN><RAMAN><RAMAN><RAMAN><RAMAN><RAMAN><RAMAN>

 RAMAN INTENSITIES UNDER PLACZECK APPROXIMATION ARE COMPUTED AS:

  DIRECTIONAL (SINGLE CRYSTAL) :

     I_ij(n)= VOLUME*X(n,i,j)**2

  ISOTROPIC (POLYCRYSTALLINE POWDERS, GASES) :

     G_0(n) = 1/3*(SUM_i X(n,i,i))**2
     G_1(n) = 1/2*SUM_i,j (X(n,i,j)+X(n,j,i))**2
     G_2(n) = 1/3*SUM_i,j (X(n,i,i)-X(n,j,j))**2

     I_par(n)  = VOLUME*( 15*G_0(n) + 6*(G_1(n) + G_2(n)) )
     I_perp(n) = VOLUME*9/2*( G_1(n) + G_2(n) )
     I_tot(n)  = I_par(n) + I_perp(n)

  WHERE X(n,i,j) IS THE i,j-th COMPONENT OF THE RAMAN TENSOR
  IN THE BASIS OF NORMAL MODE n

  ALL VALUES ARE NORMALIZED TO THE MOST INTENSE PEAK


  INTENSITIES HAVE BEEN CALCULATED AT 
  TEMPERATURE                  :    298.0 K
  FREQUENCY OF INCOMING LASER  :    514.0 NM


 REFERENCES TO BE QUOTED FOR RAMAN INTENSITIES:

 L.MASCHIO, B.KIRTMAN, M.RERAT, R.ORLANDO and R.DOVESI, JCP 139, 164101 (2013)
 L.MASCHIO, B.KIRTMAN, M.RERAT, R.ORLANDO and R.DOVESI, JCP 139, 164102 (2013)

  --
  POLYCRYSTALLINE ISOTROPIC INTENSITIES (ARBITRARY UNITS)

    MODES    FREQUENCIES           I_tot     I_par    I_perp
  ----------------------------------------------------------------
    4-   6      302.2861 (F  )   1000.00    571.43    428.57

  --
  SINGLE CRYSTAL DIRECTIONAL INTENSITIES (ARBITRARY UNITS)

    MODES    FREQUENCIES          I_xx    I_xy    I_xz    I_yy    I_yz    I_zz
  ----------------------------------------------------------------------------
    4-   6      302.2861 (F  )    0.00 1000.00  999.98    0.00  999.98    0.00

 <RAMAN><RAMAN><RAMAN><RAMAN><RAMAN><RAMAN><RAMAN><RAMAN><RAMAN><RAMAN><RAMAN>
 <RAMAN><RAMAN><RAMAN><RAMAN><RAMAN><RAMAN><RAMAN><RAMAN><RAMAN><RAMAN><RAMAN>


 NORMAL MODES NORMALIZED TO CLASSICAL AMPLITUDES (IN BOHR)

 FREQ(CM**-1)      0.00      0.00      0.00    302.29    302.29    302.29

 AT.   1 ZN X    -0.1021    0.0000    0.0000    0.0000   -0.0456    0.0000
            Y     0.0000   -0.1021    0.0000   -0.0456    0.0000    0.0000
            Z     0.0000    0.0000   -0.1021    0.0000    0.0000   -0.0456
 AT.   2 S  X    -0.1021    0.0000    0.0000    0.0000    0.0911    0.0000
            Y     0.0000   -0.1021    0.0000    0.0911    0.0000    0.0000
            Z     0.0000    0.0000   -0.1021    0.0000    0.0000    0.0911

 *******************************************************************************

 VIBRATIONAL TEMPERATURES (K) [MODE NUMBER;IRREP]

 TO MODES
   434.9 [   4;F  ]   434.9 [   5;F  ]   434.9 [   6;F  ]

 *******************************************************************************

 HARMONIC VIBRATIONAL CONTRIBUTIONS TO THERMODYNAMIC FUNCTIONS AT GIVEN
 TEMPERATURE AND PRESSURE:

 (EL = ELECTRONIC ENERGY
  E0 = ZERO-POINT ENERGY
  ET = THERMAL CONTRIBUTION TO THE VIBRATIONAL ENERGY
  PV = PRESSURE * VOLUME
  TS = TEMPERATURE * ENTROPY)

                          AU/CELL             EV/CELL                 KJ/MOL
 EL            :   -2177.234699013069  -59245.568146628211    -5716328.89668197
 E0            :       0.002065975297       0.056218045897           5.42421738


 *******************************************************************************

 THERMODYNAMIC FUNCTIONS WITH VIBRATIONAL CONTRIBUTIONS

 AT (T =  298.15 K, P =   0.10132500E+00 MPA):

                          AU/CELL             EV/CELL                 KJ/MOL
 ET            :       0.001251910959       0.034066229079           3.28689176
 PV            :       0.000000922809       0.000025110913           0.00242284
 TS            :       0.002001565207       0.054465358261           5.25510871
 ET+PV-TS      :      -0.000748731440      -0.020374018269          -1.96579412
 EL+E0+ET+PV-TS:   -2177.233381769212  -59245.532302600586    -5716325.43825871

 OTHER THERMODYNAMIC FUNCTIONS:

                      mHARTREE/(CELL*K)     mEV/(CELL*K)              J/(MOL*K)
 ENTROPY       :       0.006713282601       0.182677706729          17.62572099
 HEAT CAPACITY :       0.007980933881       0.217172251722          20.95393895

 *******************************************************************************
 TTTTTTTTTTTTTTTTTTTTTTTTTTTTTT END         TELAPSE     1008.45 TCPU      999.35
 EEEEEEEEEE TERMINATION  DATE 05 09 2023 TIME 18:28:56.2
