         256 PROCESSORS WORKING

         
 *******************************************************************************
 *                                                                             *
 *                               CRYSTAL23                                     *
 *                      public : 1.0.1 - October 2022                          *
 *                       HTTP://WWW.CRYSTAL.UNITO.IT                           *
 *                                                                             *
 *                              MAIN AUTHORS                                   *
 *                                                                             *
 *  R. DOVESI(1,11), V.R. SAUNDERS(2), C. ROETTI(1,11), R. ORLANDO(1,11),      *
 *  C.M. ZICOVICH-WILSON(1,3), F. PASCALE(4), B. CIVALLERI(1,11),              *
 *  K. DOLL(5), N.M. HARRISON(6), I.J. BUSH(7), Ph. D'ARCO(8),                 *
 *  M. LLUNELL(9), M. CAUSA'(10), Y. NOEL(8), L. MASCHIO(1,11), A. ERBA(1,11)  *
 *  M. RE'RAT(14), S. CASASSA(1,11), B.G. SEARLE(2), J.K. DESMARAIS(1)         *
 *                                                                             *
 *        CONTRIBUTIONS TO THE CODE HAVE ALSO BEEN GIVEN BY                    *
 *                                                                             *
 *  M. FERRABONE(1,11), M. DE LA PIERRE(1,11), M. FERRERO(1,11),               *
 *  J. BAIMA(1,11), E. ALBANESE(1,11), M.F. PEINTINGER(12), R. BAST(13),       *
 *  B. KIRTMAN(15), V. LACIVITA(1,11), R. DEMICHELIS(1,16)                     *
 *  G. BRANDEBURG(17), S. SALUSTRO(1,11), G. SANSONE(1,11)                     *
 *  M.T. RUGGIERO(18), L.E. DAGA(1), L. DONA'(1), A. COSSARD(1)                *
 *                                                                             *
 * (1) THEORETICAL CHEMISTRY GROUP - UNIVERSITA' DI TORINO - TORINO (ITALY)    *
 * (2) SCIENTIFIC COMPUTING DEPARTMENT - STFC DARESBURY (UK)                   *
 * (3) UNIVERSIDAD AUTONOMA DEL ESTADO DE MORELOS - CUERNAVACA (MEXICO)        *
 * (4) UNIVERSITE' DE LORRAINE - NANCY (FRANCE)                                *
 * (5) UNIVERSITAET STUTTGART- STUTTGART (GERMANY)                             *
 * (6) IMPERIAL COLLEGE - LONDON (UK)                                          *
 * (7) SCIENTIFIC COMPUTING DEPARTMENT - STFC RAL (UK)                         *
 * (8) UPMC - SORBONNE UNIVERSITES - PARIS (FRANCE)                            *
 * (9) UNIVERSIDAD DE BARCELONA - BARCELONA (SPAIN)                            *
 *(10) UNIVERSITA' DI NAPOLI "FEDERICO II" - NAPOLI (ITALY)                    *
 *(11) NIS - NANOSTRUCTURED INTERFACES AND SURFACES - TORINO (ITALY)           *
 *(12) MPI FUER CHEMISCHE ENERGIEKONVERSION - MUELHEIM AN DER RUHR (GERMANY)   *
 *(13) UNIVERSITY OF TROMSO - TROMSO (NORWAY)                                  *
 *(14) UNIVERSITE' DE PAU ET DES PAYS DE L'ADOUR - PAU (FRANCE)                *
 *(15) UNIVERSITY OF CALIFORNIA SANTA BARBARA - SANTA BARBARA (USA)            *
 *(16) CURTIN UNIVERSITY - PERTH (AUSTRALIA)                                   *
 *(17) UNIVERSITY COLLEGE LONDON - LONDON (UK)                                 *
 *(18) UNIVERSITY OF VERMONT - BURLINGTON (USA)                                *
 *                                                                             *
 *******************************************************************************
 EEEEEEEEEE STARTING  DATE 05 09 2023 TIME 16:52:49.9
 ICSD_CollCode280605.cif                                                         

 CRYSTAL CALCULATION
 (INPUT ACCORDING TO THE INTERNATIONAL TABLES FOR X-RAY CRYSTALLOGRAPHY)
 CRYSTAL FAMILY                       :  TETRAGONAL  
 CRYSTAL CLASS  (GROTH - 1921)        :  DITETRAGONAL DIPYRAMIDAL             

 SPACE GROUP (CENTROSYMMETRIC)        :  P 42/M N M      

 LATTICE PARAMETERS  (ANGSTROMS AND DEGREES) - CONVENTIONAL CELL
        A           B           C        ALPHA        BETA       GAMMA
     4.70380     4.70380     3.13360    90.00000    90.00000    90.00000


 NUMBER OF IRREDUCIBLE ATOMS IN THE CONVENTIONAL CELL:    2

 INPUT COORDINATES

 ATOM AT. N.              COORDINATES
   1  30     5.000000000000E-01  5.000000000000E-01  5.000000000000E-01
   2   9     1.965000000000E-01  8.035000000000E-01  5.000000000000E-01

 *******************************************************************************

 << INFORMATION >>: FROM NOW ON, ALL COORDINATES REFER TO THE PRIMITIVE CELL

 *******************************************************************************

 LATTICE PARAMETERS  (ANGSTROMS AND DEGREES) - PRIMITIVE CELL
       A          B          C        ALPHA      BETA     GAMMA        VOLUME
    4.70380    4.70380    3.13360    90.00000  90.00000  90.00000     69.333201

 COORDINATES OF THE EQUIVALENT ATOMS (FRACTIONAL UNITS)

 N. ATOM EQUIV AT. N.          X                  Y                  Z

   1   1   1   30 ZN   -5.00000000000E-01 -5.00000000000E-01 -5.00000000000E-01
   2   1   2   30 ZN    0.00000000000E+00  0.00000000000E+00  0.00000000000E+00

   3   2   1    9 F     1.96500000000E-01 -1.96500000000E-01 -5.00000000000E-01
   4   2   2    9 F    -1.96500000000E-01  1.96500000000E-01 -5.00000000000E-01
   5   2   3    9 F    -3.03500000000E-01 -3.03500000000E-01  0.00000000000E+00
   6   2   4    9 F     3.03500000000E-01  3.03500000000E-01  0.00000000000E+00

 NUMBER OF SYMMETRY OPERATORS         :   16
 *******************************************************************************
 * GEOMETRY EDITING - INPUT COORDINATES ARE GIVEN IN ANGSTROM         
 *******************************************************************************

 GEOMETRY NOW FULLY CONSISTENT WITH THE GROUP

 FRQFRQFRQFRQFRQFRQFRQFRQFRQFRQFRQFRQFRQFRQFRQFRQFRQFRQFRQFRQFRQFRQFRQFRQFRQFRQ

                       FREQUENCY CALCULATION

 OPTIMIZATION PERFORMED BEFORE FREQUENCIES CALCULATION
 *******************************************************************************
 INFORMATION **** NEW DEFAULT **** FINALRUN 4 FOR GEOMETRY OPTIMIZATIONS
 INFORMATION **** NEW DEFAULT **** OPTGEOM OPTIMIZES ATOMIC COORDINATES ONLY
 INFORMATION **** NEW DEFAULT **** TOL. ON ATOMIC DISP TO REDEFINE REF. GEOMETRY: 0.8 Angs
 INFORMATION **** NEW DEFAULT **** N POINTS TO REDEFINE REF. GEOMETRY: N OF OPT DEGS OF FREEDOM
 INFORMATION **** NEW DEFAULT **** TOL. ON ENERGY TO REDEFINE REF. GEOMETRY: 10**-3*(5*N. ATOMS)
 INFORMATION **** FULLOPTG **** FULL OPTIMIZATION (ATOMS AND CELL PARAMETERS)

 IMPORTANT INFORMATION:
 THE COORDINATE SYSTEM ADOPTED IN THE OPTIMIZATION IS NOT IN
 GENERAL HOMOGENEOUS UNITS. FOR THIS REASON THE GRADIENT AND 
 HESSIAN MATRIX IN TERMS OF THIS SYSTEM ARE GIVEN WITHOUT
 UNITS. FOR MORE DETAILS SEE THE MANUAL.

 *******************************************************************************
 COMBINED CELL/ATOM OPTIMIZATION CONTROL

 INITIAL TRUST RADIUS         0.50000 MAXIMUM TRUST RADIUS               0.50000
 MAXIMUM GRADIENT COMPONENT   0.00005 MAXIMUM DISPLACEMENT COMPONENT     0.00018
 R.M.S. OF GRADIENT COMPONENT 0.00003 R.M.S. OF DISPLACEMENT COMPONENTS  0.00012
 THRESHOLD ON ENERGY CHANGE 0.100E-06 EXTRAPOLATING POLYNOMIAL ORDER           2
 MAXIMUM ALLOWED NUMBER OF STEPS   -1 SORTING OF ENERGY POINTS:               NO
 ANALYTICAL  GRADIENT                 HESSIAN UPDATING                      BFGS
 STEP SIZE NUMERICAL GRADIENT 0.00100
 INITIAL HESSIAN MATRIX: SCHLEGEL MODEL 2
 *******************************************************************************

 INFORMATION **** INPFREQ **** IR INTENSITIES EVALUATED THROUGH CPHF APPROACH
 INFORMATION **** INPFREQ **** NEW DEFAULT - IMPOSING ECKART CONDITIONS TO THE HESSIAN

 GCALCO - MAX INDICES DIRECT LATTICE VECTOR    12    12    19
 NO.OF VECTORS CREATED 6999 STARS  530 RMAX    91.99075 BOHR

 GEOMETRY FOR WAVE FUNCTION - DIMENSIONALITY OF THE SYSTEM    3
 (NON PERIODIC DIRECTION: LATTICE PARAMETER FORMALLY SET TO 500)
 *******************************************************************************
 LATTICE PARAMETERS (ANGSTROMS AND DEGREES) - BOHR = 0.5291772083 ANGSTROM
 PRIMITIVE CELL - CENTRING CODE 1/0 VOLUME=    69.333201 - DENSITY  4.882 g/cm^3
         A              B              C           ALPHA      BETA       GAMMA 
     4.70380000     4.70380000     3.13360000    90.000000  90.000000  90.000000
 *******************************************************************************
 ATOMS IN THE ASYMMETRIC UNIT    2 - ATOMS IN THE UNIT CELL:    6
     ATOM                 X/A                 Y/B                 Z/C    
 *******************************************************************************
      1 T  30 ZN   -5.000000000000E-01 -5.000000000000E-01 -5.000000000000E-01
      2 F  30 ZN    0.000000000000E+00 -1.110223024625E-16  0.000000000000E+00
      3 T   9 F     1.965000000000E-01 -1.965000000000E-01 -5.000000000000E-01
      4 F   9 F    -1.965000000000E-01  1.965000000000E-01 -5.000000000000E-01
      5 F   9 F    -3.035000000000E-01 -3.035000000000E-01  0.000000000000E+00
      6 F   9 F     3.035000000000E-01  3.035000000000E-01  0.000000000000E+00

 T = ATOM BELONGING TO THE ASYMMETRIC UNIT

 ****   16 SYMMOPS - TRANSLATORS IN FRACTIONAL UNITS
 **** MATRICES AND TRANSLATORS IN THE CRYSTALLOGRAPHIC REFERENCE FRAME
   V INV                    ROTATION MATRICES                   TRANSLATORS
   1   1  1.00  0.00  0.00  0.00  1.00  0.00  0.00  0.00  1.00  0.00  0.00  0.00
   2   2 -1.00  0.00  0.00  0.00 -1.00  0.00  0.00  0.00  1.00  0.00  0.00  0.00
   3   3  1.00  0.00  0.00  0.00 -1.00  0.00  0.00  0.00 -1.00  0.50  0.50  0.50
   4   4 -1.00  0.00  0.00  0.00  1.00  0.00  0.00  0.00 -1.00  0.50  0.50  0.50
   5   5  0.00 -1.00  0.00 -1.00  0.00  0.00  0.00  0.00 -1.00  0.00  0.00  0.00
   6   6  0.00  1.00  0.00  1.00  0.00  0.00  0.00  0.00 -1.00  0.00  0.00  0.00
   7   8  0.00  1.00  0.00 -1.00  0.00  0.00  0.00  0.00  1.00  0.50  0.50  0.50
   8   7  0.00 -1.00  0.00  1.00  0.00  0.00  0.00  0.00  1.00  0.50  0.50  0.50
   9   9 -1.00  0.00  0.00  0.00 -1.00  0.00  0.00  0.00 -1.00  0.00  0.00  0.00
  10  10  1.00  0.00  0.00  0.00  1.00  0.00  0.00  0.00 -1.00  0.00  0.00  0.00
  11  11 -1.00  0.00  0.00  0.00  1.00  0.00  0.00  0.00  1.00  0.50  0.50  0.50
  12  12  1.00  0.00  0.00  0.00 -1.00  0.00  0.00  0.00  1.00  0.50  0.50  0.50
  13  13  0.00  1.00  0.00  1.00  0.00  0.00  0.00  0.00  1.00  0.00  0.00  0.00
  14  14  0.00 -1.00  0.00 -1.00  0.00  0.00  0.00  0.00  1.00  0.00  0.00  0.00
  15  16  0.00 -1.00  0.00  1.00  0.00  0.00  0.00  0.00 -1.00  0.50  0.50  0.50
  16  15  0.00  1.00  0.00 -1.00  0.00  0.00  0.00  0.00 -1.00  0.50  0.50  0.50

 DIRECT LATTICE VECTORS CARTESIAN COMPONENTS (ANGSTROM)
          X                    Y                    Z
   0.470380000000E+01   0.000000000000E+00   0.000000000000E+00
   0.000000000000E+00   0.470380000000E+01   0.000000000000E+00
   0.000000000000E+00   0.000000000000E+00   0.313360000000E+01


 CARTESIAN COORDINATES - PRIMITIVE CELL
 *******************************************************************************
 *      ATOM          X(ANGSTROM)         Y(ANGSTROM)         Z(ANGSTROM)
 *******************************************************************************
    1    30 ZN    2.351900000000E+00  2.351900000000E+00  1.566800000000E+00
    2    30 ZN    0.000000000000E+00 -5.222267063232E-16  0.000000000000E+00
    3     9 F     9.242967000000E-01 -9.242967000000E-01  1.566800000000E+00
    4     9 F    -9.242967000000E-01  9.242967000000E-01  1.566800000000E+00
    5     9 F    -1.427603300000E+00 -1.427603300000E+00  0.000000000000E+00
    6     9 F     1.427603300000E+00  1.427603300000E+00  0.000000000000E+00

 *******************************************************************************
 LOCAL ATOMIC FUNCTIONS BASIS SET
 *******************************************************************************
   ATOM   X(AU)   Y(AU)   Z(AU)  N. TYPE  EXPONENT  S COEF   P COEF   D/F/G COEF
 *******************************************************************************
   1 ZN   4.444   4.444   2.961
                                  1 S  
                                         4.059E+05 2.244E-04 0.000E+00 0.000E+00
                                         6.085E+04 1.740E-03 0.000E+00 0.000E+00
                                         1.385E+04 9.051E-03 0.000E+00 0.000E+00
                                         3.920E+03 3.682E-02 0.000E+00 0.000E+00
                                         1.276E+03 1.200E-01 0.000E+00 0.000E+00
                                         4.587E+02 2.858E-01 0.000E+00 0.000E+00
                                         1.783E+02 4.109E-01 0.000E+00 0.000E+00
                                         7.061E+01 2.182E-01 0.000E+00 0.000E+00
                                  2 S  
                                         4.439E+02-2.493E-02 0.000E+00 0.000E+00
                                         1.376E+02-1.182E-01 0.000E+00 0.000E+00
                                         2.227E+01 5.537E-01 0.000E+00 0.000E+00
                                         9.522E+00 5.263E-01 0.000E+00 0.000E+00
                                  3 S  
                                         1.487E+01-2.293E-01 0.000E+00 0.000E+00
                                         2.465E+00 7.114E-01 0.000E+00 0.000E+00
                                  4 S  
                                         1.011E+00 1.000E+00 0.000E+00 0.000E+00
                                  5 S  
                                         3.230E-01 1.000E+00 0.000E+00 0.000E+00
                                  6 S  
                                         1.517E-01 1.000E+00 0.000E+00 0.000E+00
                           7-     9 P  
                                         2.205E+03 0.000E+00 2.336E-03 0.000E+00
                                         5.224E+02 0.000E+00 1.903E-02 0.000E+00
                                         1.677E+02 0.000E+00 8.996E-02 0.000E+00
                                         6.267E+01 0.000E+00 2.611E-01 0.000E+00
                                         2.511E+01 0.000E+00 4.235E-01 0.000E+00
                                         1.023E+01 0.000E+00 2.462E-01 0.000E+00
                          10-    12 P  
                                         4.071E+01 0.000E+00-3.003E-02 0.000E+00
                                         5.625E+00 0.000E+00 5.558E-01 0.000E+00
                                         2.228E+00 0.000E+00 9.558E-01 0.000E+00
                          13-    15 P  
                                         1.160E+00 0.000E+00 1.000E+00 0.000E+00
                          16-    18 P  
                                         2.625E-01 0.000E+00 1.000E+00 0.000E+00
                          19-    23 D  
                                         8.855E+01 0.000E+00 0.000E+00 1.273E-02
                                         2.572E+01 0.000E+00 0.000E+00 7.939E-02
                                         9.128E+00 0.000E+00 0.000E+00 2.449E-01
                                         3.431E+00 0.000E+00 0.000E+00 4.039E-01
                          24-    28 D  
                                         1.186E+00 0.000E+00 0.000E+00 1.000E+00
                          29-    33 D  
                                         3.309E-01 0.000E+00 0.000E+00 1.000E+00
                          34-    40 F  
                                         2.614E+00 0.000E+00 0.000E+00 1.000E+00
   2 ZN   0.000  -0.000   0.000
   3 F    1.747  -1.747   2.961
                                 81 S  
                                         3.548E+04 2.155E-04 0.000E+00 0.000E+00
                                         5.318E+03 1.670E-03 0.000E+00 0.000E+00
                                         1.210E+03 8.673E-03 0.000E+00 0.000E+00
                                         3.429E+02 3.505E-02 0.000E+00 0.000E+00
                                         1.120E+02 1.117E-01 0.000E+00 0.000E+00
                                         4.071E+01 2.599E-01 0.000E+00 0.000E+00
                                 82 S  
                                         1.604E+01 3.942E-01 0.000E+00 0.000E+00
                                         6.504E+00 2.500E-01 0.000E+00 0.000E+00
                                 83 S  
                                         1.442E+00 1.000E+00 0.000E+00 0.000E+00
                                 84 S  
                                         4.598E-01 1.000E+00 0.000E+00 0.000E+00
                          85-    87 P  
                                         8.023E+01 0.000E+00 6.369E-03 0.000E+00
                                         1.859E+01 0.000E+00 4.430E-02 0.000E+00
                                         5.687E+00 0.000E+00 1.687E-01 0.000E+00
                                         1.951E+00 0.000E+00 3.617E-01 0.000E+00
                          88-    90 P  
                                         6.923E-01 0.000E+00 1.000E+00 0.000E+00
                          91-    93 P  
                                         1.984E-01 0.000E+00 1.000E+00 0.000E+00
                          94-    98 D  
                                         1.063E+00 0.000E+00 0.000E+00 1.000E+00
   4 F   -1.747   1.747   2.961
   5 F   -2.698  -2.698   0.000
   6 F    2.698   2.698   0.000
 INFORMATION **** SET_MPP **** PCRYSTAL CALCULATION
 INFORMATION **** READM2 **** NEW DEFAULT: FOCK/KS MATRIX MIXING SET TO 30 %
 INFORMATION **** READM2 **** NEW DEFAULT: FULL DIRECT SCF MODE
 INFORMATION **** READM2 **** NEW DEFAULT: COULOMB BIPOLAR BUFFER SET TO 32 Mb
 INFORMATION **** READM2 **** NEW DEFAULT: EXCHANGE BIPOLAR BUFFER SET TO 32 Mb

 *******************************************************************************
 NEW DEFAULT: DFT INTEGRATION GRID INCREASED TO XLGRID
 NEW DEFAULT: DIIS ACCELERATOR ACTIVE
 USE KEYWORD NODIIS TO TURN IT OFF
 *******************************************************************************

 INFORMATION **** RDDFTP **** MAX N. OF POINTS ALLOWED IN A BATCH FOR NUMERICAL INTEGRATION         200
 INFORMATION **** TOLINTEG **** COULOMB AND EXCHANGE SERIES TOLERANCES MODIFIED
 INFORMATION **** TOLDEE **** SCF TOL ON TOTAL ENERGY SET TO          11
 INFORMATION **** EXCHSIZE **** EXCHANGE BIPOLAR BUFFER SIZE SET TO    12012489
 INFORMATION **** MAXCYCLE **** MAX NUMBER OF SCF CYCLES SET TO         150
 *******************************************************************************
 N. OF ATOMS PER CELL         6  COULOMB OVERLAP TOL         (T1) 10**   -7
 NUMBER OF SHELLS            60  COULOMB PENETRATION TOL     (T2) 10**   -7
 NUMBER OF AO               152  EXCHANGE OVERLAP TOL        (T3) 10**   -7
 N. OF ELECTRONS PER CELL    96  EXCHANGE PSEUDO OVP (F(G))  (T4) 10**   -9
 CORE ELECTRONS PER CELL     44  EXCHANGE PSEUDO OVP (P(G))  (T5) 10**  -30
 N. OF SYMMETRY OPERATORS    16  POLE ORDER IN MONO ZONE                  4
 *******************************************************************************
 TYPE OF CALCULATION :  RESTRICTED CLOSED SHELL
 KOHN-SHAM HAMILTONIAN

 (EXCHANGE)[CORRELATION] FUNCTIONAL:(PERDEW-BURKE-ERNZERHOF)[PERDEW-BURKE-ERNZERHOF]


 HYBRID EXCHANGE - PERCENTAGE OF FOCK EXCHANGE    25.0000

 CAPPA:IS1  8;IS2  8;IS3  8; K PTS MONK NET  75; SYMMOPS:K SPACE  16;G SPACE  16

 *******************************************************************************
 MAX NUMBER OF SCF CYCLES     150  CONVERGENCE ON DELTAP        10**-21
 WEIGHT OF F(I) IN F(I+1)      30% CONVERGENCE ON ENERGY        10**-11
 SHRINK. FACT.(MONKH.)    8  8  8  NUMBER OF K POINTS IN THE IBZ     75
 SHRINKING FACTOR(GILAT NET)    8  NUMBER OF K POINTS(GILAT NET)     75
 *******************************************************************************
 *** K POINTS COORDINATES (OBLIQUE COORDINATES IN UNITS OF IS =  8)
   1-R(  0  0  0)   2-C(  1  0  0)   3-C(  2  0  0)   4-C(  3  0  0)
   5-R(  4  0  0)   6-C(  1  1  0)   7-C(  2  1  0)   8-C(  3  1  0)
   9-C(  4  1  0)  10-C(  2  2  0)  11-C(  3  2  0)  12-C(  4  2  0)
  13-C(  3  3  0)  14-C(  4  3  0)  15-R(  4  4  0)  16-C(  0  0  1)
  17-C(  1  0  1)  18-C(  2  0  1)  19-C(  3  0  1)  20-C(  4  0  1)
  21-C(  1  1  1)  22-C(  2  1  1)  23-C(  3  1  1)  24-C(  4  1  1)
  25-C(  2  2  1)  26-C(  3  2  1)  27-C(  4  2  1)  28-C(  3  3  1)
  29-C(  4  3  1)  30-C(  4  4  1)  31-C(  0  0  2)  32-C(  1  0  2)
  33-C(  2  0  2)  34-C(  3  0  2)  35-C(  4  0  2)  36-C(  1  1  2)
  37-C(  2  1  2)  38-C(  3  1  2)  39-C(  4  1  2)  40-C(  2  2  2)
  41-C(  3  2  2)  42-C(  4  2  2)  43-C(  3  3  2)  44-C(  4  3  2)
  45-C(  4  4  2)  46-C(  0  0  3)  47-C(  1  0  3)  48-C(  2  0  3)
  49-C(  3  0  3)  50-C(  4  0  3)  51-C(  1  1  3)  52-C(  2  1  3)
  53-C(  3  1  3)  54-C(  4  1  3)  55-C(  2  2  3)  56-C(  3  2  3)
  57-C(  4  2  3)  58-C(  3  3  3)  59-C(  4  3  3)  60-C(  4  4  3)
  61-R(  0  0  4)  62-C(  1  0  4)  63-C(  2  0  4)  64-C(  3  0  4)
  65-R(  4  0  4)  66-C(  1  1  4)  67-C(  2  1  4)  68-C(  3  1  4)
  69-C(  4  1  4)  70-C(  2  2  4)  71-C(  3  2  4)  72-C(  4  2  4)
  73-C(  3  3  4)  74-C(  4  3  4)  75-R(  4  4  4)

 DIRECT LATTICE VECTORS COMPON. (A.U.)     RECIP. LATTICE VECTORS COMPON. (A.U.) 
        X            Y            Z              X            Y            Z
    8.8888938    0.0000000    0.0000000      0.7068580    0.0000000    0.0000000
    0.0000000    8.8888938    0.0000000      0.0000000    0.7068580    0.0000000
    0.0000000    0.0000000    5.9216458      0.0000000    0.0000000    1.0610539

 DISK SPACE FOR EIGENVECTORS (FTN 10)     3326976 REALS

 SYMMETRY ADAPTION OF THE BLOCH FUNCTIONS ENABLED
 TTTTTTTTTTTTTTTTTTTTTTTTTTTTTT gordsh1     TELAPSE        4.66 TCPU        1.86

 MATRIX SIZE: P(G)  686452, F(G)   56080, P(G) IRR   34636, F(G) IRR    7581
 MAX G-VECTOR INDEX FOR 1- AND 2-ELECTRON INTEGRALS 499

 TTTTTTTTTTTTTTTTTTTTTTTTTTTTTT INPUT       TELAPSE        4.66 TCPU        1.86

 NEIGHBORS OF THE NON-EQUIVALENT ATOMS

 N = NUMBER OF NEIGHBORS AT DISTANCE R
    ATOM  N     R/ANG      R/AU   NEIGHBORS (ATOM LABELS AND CELL INDICES)
   1 ZN   2     2.0189     3.8152    3 F    0 1 0    4 F    1 0 0
   1 ZN   4     2.0405     3.8559    5 F    1 1 0    5 F    1 1 1    6 F    0 0 0
                                     6 F    0 0 1
   1 ZN   2     3.1336     5.9216    1 ZN   0 0-1    1 ZN   0 0 1
   1 ZN   4     3.5737     6.7534    3 F    0 0 0    3 F    1 1 0    4 F    1 1 0
                                     4 F    0 0 0
   1 ZN   8     3.6766     6.9479    2 ZN   0 0 0    2 ZN   0 0 1    2 ZN   1 0 0
                                     2 ZN   0 1 0    2 ZN   1 0 1    2 ZN   0 1 1
                                     2 ZN   1 1 0    2 ZN   1 1 1
   1 ZN   4     3.7277     7.0443    3 F    0 1 1    3 F    0 1-1    4 F    1 0 1
                                     4 F    1 0-1

   3 F    1     2.0189     3.8152    1 ZN   0-1 0
   3 F    2     2.0405     3.8559    2 ZN   0 0 0    2 ZN   0 0 1
   3 F    1     2.6143     4.9403    4 F    0 0 0
   3 F    8     2.8705     5.4244    5 F    0 0 0    5 F    0 0 1    5 F    1 0 0
                                     5 F    1 0 1    6 F    0 0 1    6 F    0 0 0
                                     6 F    0-1 1    6 F    0-1 0
   3 F    2     3.1336     5.9216    3 F    0 0-1    3 F    0 0 1
   3 F    2     3.4014     6.4277    4 F    1 0 0    4 F    0-1 0


 SYMMETRY ALLOWED ELASTIC DISTORTION 1
  0.5773503  0.0000000  0.0000000
  0.0000000  0.5773503  0.0000000
  0.0000000  0.0000000  0.5773503

 SYMMETRY ALLOWED ELASTIC DISTORTION 2
  0.4082483  0.0000000  0.0000000
  0.0000000  0.4082483  0.0000000
  0.0000000  0.0000000 -0.8164966

 SYMMETRY ALLOWED INTERNAL DEGREE(S) OF FREEDOM:   1
 TTTTTTTTTTTTTTTTTTTTTTTTTTTTTT SYMM        TELAPSE        4.71 TCPU        1.91
 TTTTTTTTTTTTTTTTTTTTTTTTTTTTTT INT_SCREEN  TELAPSE        4.71 TCPU        1.91

 *******************************************************************************
 *                             OPTIMIZATION STARTS                             *
 *******************************************************************************
 RECLASIFICATION OF INDICES FOR INTEGRAL CALC ACCORDING TO DIFFERENT CRITERIA:
           FIXDELTE                  FIXDELTX              FIXDELTN
          0.10000000E-01           0.80000000                 10
 *******************************************************************************

 *******************************************************************************
 COORDINATE AND CELL OPTIMIZATION - POINT    1

 DFT PARAMETERS

     ATOM       ELECTRONS   NET CHARGE   R(ANGSTROM)
   1  30  ZN     30.0000      0.0000     1.37000000
   3   9  F       9.0000      0.0000     0.72000000

 SIZE OF GRID=      21505
 TTTTTTTTTTTTTTTTTTTTTTTTTTTTTT MAKE_GRID2  TELAPSE        6.13 TCPU        3.32
 BECKE WEIGHT FUNCTION
 RADSAFE =     2.00
 TOLERANCES - DENSITY:10**- 6; POTENTIAL:10**- 9; GRID WGT:10**-14

 RADIAL INTEGRATION  - INTERVALS (POINTS,UPPER LIMIT):            1( 99,  4.0*R)

 ANGULAR INTEGRATION - INTERVALS (ACCURACY LEVEL [N. POINTS] UPPER LIMIT):
  1(  6[ 146]   0.2)  2( 11[ 302]   0.5)  3( 14[ 590]   0.9)  4( 18[1454]   3.5)
  5( 14[ 590]9999.0)
 TTTTTTTTTTTTTTTTTTTTTTTTTTTTTT INT_CALC    TELAPSE        6.15 TCPU        3.34

 *******************************************************************************
 ICSD_CollCode280605.cif                                                         
 CRYSTAL - SCF - TYPE OF CALCULATION :  RESTRICTED CLOSED SHELL
 *******************************************************************************

 CAPPA:IS1  8;IS2  8;IS3  8; K PTS MONK NET  75; SYMMOPS:K SPACE  16;G SPACE  16

 TTTTTTTTTTTTTTTTTTTTTTTTTTTTTT SDIK        TELAPSE        6.16 TCPU        3.35

 AAAAAAAAAAAAAAAAAAAAAAAAAAAAAAAAAAAAAAAAAAAAAAAAAAAAAAAAAAAAAAAAAAAAAAAAAAAAAAA
         ATOMIC WAVEFUNCTION(S)


 NUCLEAR CHARGE 30.0  SYMMETRY SPECIES            S    P    D
 N. ELECTRONS   30.0  NUMBER OF PRIMITIVE GTOS   17   11    6
                      NUMBER OF CONTRACTED GTOS   6    4    3
                      NUMBER OF CLOSED SHELLS     4    2    1
                      OPEN SHELL OCCUPATION       0    0    0

  ZNUC  SCFIT    TOTAL HF ENERGY   KINETIC ENERGY   VIRIAL THEOREM             ACCURACY
  30.0    18    -1.777712574E+03  1.776653869E+03 -2.000595898E+00  2.8E-06

 NUCLEAR CHARGE  9.0  SYMMETRY SPECIES            S    P
 N. ELECTRONS    9.0  NUMBER OF PRIMITIVE GTOS   10    6
                      NUMBER OF CONTRACTED GTOS   4    3
                      NUMBER OF CLOSED SHELLS     2    0
                      OPEN SHELL OCCUPATION       0    5

  ZNUC  SCFIT    TOTAL HF ENERGY   KINETIC ENERGY   VIRIAL THEOREM             ACCURACY
   9.0    12    -9.939808566E+01  9.942124757E+01 -1.999767033E+00  3.7E-06

 AAAAAAAAAAAAAAAAAAAAAAAAAAAAAAAAAAAAAAAAAAAAAAAAAAAAAAAAAAAAAAAAAAAAAAAAAAAAAAA

 TTTTTTTTTTTTTTTTTTTTTTTTTTTTTT MOQGAD      TELAPSE        6.24 TCPU        3.41
 TTTTTTTTTTTTTTTTTTTTTTTTTTTTTT SHELLXN     TELAPSE        7.29 TCPU        4.45
 TTTTTTTTTTTTTTTTTTTTTTTTTTTTTT MONMO3      TELAPSE        7.29 TCPU        4.45
 NUMERICALLY INTEGRATED DENSITY     96.0000293019
 TTTTTTTTTTTTTTTTTTTTTTTTTTTTTT NUMDFT      TELAPSE        7.35 TCPU        4.51
 CYC   0 ETOT(AU) -3.957721519250E+03 DETOT -3.96E+03 tst  0.00E+00 PX  1.00E+00
 TTTTTTTTTTTTTTTTTTTTTTTTTTTTTT DIIS        TELAPSE        7.35 TCPU        4.51
 TTTTTTTTTTTTTTTTTTTTTTTTTTTTTT FDIK        TELAPSE        7.39 TCPU        4.55
 INSULATING STATE
 TOP OF VALENCE BANDS -    BAND     48; K    1; EIG -3.1279800E-01 AU
 BOTTOM OF VIRTUAL BANDS - BAND     49; K    1; EIG -1.4445174E-01 AU
 DIRECT ENERGY BAND GAP:   4.5809 eV
 TTTTTTTTTTTTTTTTTTTTTTTTTTTTTT PDIG        TELAPSE        7.42 TCPU        4.57
 TTTTTTTTTTTTTTTTTTTTTTTTTTTTTT MOQGAD      TELAPSE        7.42 TCPU        4.57
 TTTTTTTTTTTTTTTTTTTTTTTTTTTTTT SHELLXN     TELAPSE        8.50 TCPU        5.65
 TTTTTTTTTTTTTTTTTTTTTTTTTTTTTT MONMO3      TELAPSE        8.51 TCPU        5.65
 NUMERICALLY INTEGRATED DENSITY     96.0000330259
 TTTTTTTTTTTTTTTTTTTTTTTTTTTTTT NUMDFT      TELAPSE        8.57 TCPU        5.71
 CYC   1 ETOT(AU) -3.957543271116E+03 DETOT  1.78E-01 tst  0.00E+00 PX  1.00E+00
 TTTTTTTTTTTTTTTTTTTTTTTTTTTTTT DIIS        TELAPSE        8.57 TCPU        5.71
 DIIS TEST: 0.10670E+01 AT SCF   CYCLE   1 - MIX   30 %
 TTTTTTTTTTTTTTTTTTTTTTTTTTTTTT FDIK        TELAPSE        8.59 TCPU        5.73
 INSULATING STATE
 TOP OF VALENCE BANDS -    BAND     48; K   65; EIG -2.7787347E-01 AU
 TOP OF VALENCE BANDS -    BAND     48; K    1; EIG -2.8662406E-01 AU
 BOTTOM OF VIRTUAL BANDS - BAND     49; K    1; EIG -5.4686624E-02 AU
 INDIRECT ENERGY BAND GAP:   6.0732 eV
 TTTTTTTTTTTTTTTTTTTTTTTTTTTTTT PDIG        TELAPSE        8.61 TCPU        5.75
 TTTTTTTTTTTTTTTTTTTTTTTTTTTTTT MOQGAD      TELAPSE        8.61 TCPU        5.75
 TTTTTTTTTTTTTTTTTTTTTTTTTTTTTT SHELLXN     TELAPSE        9.69 TCPU        6.82
 TTTTTTTTTTTTTTTTTTTTTTTTTTTTTT MONMO3      TELAPSE        9.69 TCPU        6.83
 NUMERICALLY INTEGRATED DENSITY     96.0000420882
 TTTTTTTTTTTTTTTTTTTTTTTTTTTTTT NUMDFT      TELAPSE        9.75 TCPU        6.89
 CYC   2 ETOT(AU) -3.957587319654E+03 DETOT -4.40E-02 tst  4.58E-03 PX  7.39E-02
 TTTTTTTTTTTTTTTTTTTTTTTTTTTTTT DIIS        TELAPSE        9.76 TCPU        6.89
 DIIS TEST: 0.79647E+00 AT SCF   CYCLE   2 - DIIS ACTIVE - HISTORY:     2 CYCLES
 TTTTTTTTTTTTTTTTTTTTTTTTTTTTTT FDIK        TELAPSE        9.77 TCPU        6.90
 INSULATING STATE
 TOP OF VALENCE BANDS -    BAND     48; K   65; EIG -3.0227210E-01 AU
 TOP OF VALENCE BANDS -    BAND     48; K    1; EIG -3.0540639E-01 AU
 BOTTOM OF VIRTUAL BANDS - BAND     49; K    1; EIG -4.1166404E-02 AU
 INDIRECT ENERGY BAND GAP:   7.1051 eV
 TTTTTTTTTTTTTTTTTTTTTTTTTTTTTT PDIG        TELAPSE        9.79 TCPU        6.92
 TTTTTTTTTTTTTTTTTTTTTTTTTTTTTT MOQGAD      TELAPSE        9.79 TCPU        6.92
 TTTTTTTTTTTTTTTTTTTTTTTTTTTTTT SHELLXN     TELAPSE       10.87 TCPU        8.00
 TTTTTTTTTTTTTTTTTTTTTTTTTTTTTT MONMO3      TELAPSE       10.88 TCPU        8.00
 NUMERICALLY INTEGRATED DENSITY     96.0000386620
 TTTTTTTTTTTTTTTTTTTTTTTTTTTTTT NUMDFT      TELAPSE       10.94 TCPU        8.06
 CYC   3 ETOT(AU) -3.957669088466E+03 DETOT -8.18E-02 tst  1.09E-03 PX  3.35E-02
 TTTTTTTTTTTTTTTTTTTTTTTTTTTTTT DIIS        TELAPSE       10.94 TCPU        8.06
 DIIS TEST: 0.22094E-01 AT SCF   CYCLE   3 - DIIS ACTIVE - HISTORY:     3 CYCLES
 TTTTTTTTTTTTTTTTTTTTTTTTTTTTTT FDIK        TELAPSE       10.95 TCPU        8.07
 INSULATING STATE
 TOP OF VALENCE BANDS -    BAND     48; K   65; EIG -3.1270491E-01 AU
 TOP OF VALENCE BANDS -    BAND     48; K    1; EIG -3.1637160E-01 AU
 BOTTOM OF VIRTUAL BANDS - BAND     49; K    1; EIG -4.3673405E-02 AU
 INDIRECT ENERGY BAND GAP:   7.3207 eV
 TTTTTTTTTTTTTTTTTTTTTTTTTTTTTT PDIG        TELAPSE       10.98 TCPU        8.10
 TTTTTTTTTTTTTTTTTTTTTTTTTTTTTT MOQGAD      TELAPSE       10.98 TCPU        8.10
 TTTTTTTTTTTTTTTTTTTTTTTTTTTTTT SHELLXN     TELAPSE       12.06 TCPU        9.17
 TTTTTTTTTTTTTTTTTTTTTTTTTTTTTT MONMO3      TELAPSE       12.06 TCPU        9.17
 NUMERICALLY INTEGRATED DENSITY     96.0000381159
 TTTTTTTTTTTTTTTTTTTTTTTTTTTTTT NUMDFT      TELAPSE       12.12 TCPU        9.23
 CYC   4 ETOT(AU) -3.957671026257E+03 DETOT -1.94E-03 tst  2.13E-05 PX  7.23E-03
 TTTTTTTTTTTTTTTTTTTTTTTTTTTTTT DIIS        TELAPSE       12.12 TCPU        9.23
 DIIS TEST: 0.12134E-02 AT SCF   CYCLE   4 - DIIS ACTIVE - HISTORY:     4 CYCLES
 TTTTTTTTTTTTTTTTTTTTTTTTTTTTTT FDIK        TELAPSE       12.14 TCPU        9.24
 INSULATING STATE
 TOP OF VALENCE BANDS -    BAND     48; K   65; EIG -3.0913802E-01 AU
 TOP OF VALENCE BANDS -    BAND     48; K    1; EIG -3.1239848E-01 AU
 BOTTOM OF VIRTUAL BANDS - BAND     49; K    1; EIG -4.0826150E-02 AU
 INDIRECT ENERGY BAND GAP:   7.3011 eV
 TTTTTTTTTTTTTTTTTTTTTTTTTTTTTT PDIG        TELAPSE       12.16 TCPU        9.27
 TTTTTTTTTTTTTTTTTTTTTTTTTTTTTT MOQGAD      TELAPSE       12.16 TCPU        9.27
 TTTTTTTTTTTTTTTTTTTTTTTTTTTTTT SHELLXN     TELAPSE       13.24 TCPU       10.34
 TTTTTTTTTTTTTTTTTTTTTTTTTTTTTT MONMO3      TELAPSE       13.24 TCPU       10.34
 NUMERICALLY INTEGRATED DENSITY     96.0000382625
 TTTTTTTTTTTTTTTTTTTTTTTTTTTTTT NUMDFT      TELAPSE       13.30 TCPU       10.40
 CYC   5 ETOT(AU) -3.957671142084E+03 DETOT -1.16E-04 tst  1.39E-06 PX  1.41E-03
 TTTTTTTTTTTTTTTTTTTTTTTTTTTTTT DIIS        TELAPSE       13.32 TCPU       10.42
 DIIS TEST: 0.39295E-05 AT SCF   CYCLE   5 - DIIS ACTIVE - HISTORY:     5 CYCLES
 TTTTTTTTTTTTTTTTTTTTTTTTTTTTTT FDIK        TELAPSE       13.34 TCPU       10.43
 INSULATING STATE
 TOP OF VALENCE BANDS -    BAND     48; K   65; EIG -3.0918148E-01 AU
 TOP OF VALENCE BANDS -    BAND     48; K    1; EIG -3.1249608E-01 AU
 BOTTOM OF VIRTUAL BANDS - BAND     49; K    1; EIG -4.0699297E-02 AU
 INDIRECT ENERGY BAND GAP:   7.3058 eV
 TTTTTTTTTTTTTTTTTTTTTTTTTTTTTT PDIG        TELAPSE       13.36 TCPU       10.46
 TTTTTTTTTTTTTTTTTTTTTTTTTTTTTT MOQGAD      TELAPSE       13.36 TCPU       10.46
 TTTTTTTTTTTTTTTTTTTTTTTTTTTTTT SHELLXN     TELAPSE       14.44 TCPU       11.53
 TTTTTTTTTTTTTTTTTTTTTTTTTTTTTT MONMO3      TELAPSE       14.44 TCPU       11.53
 NUMERICALLY INTEGRATED DENSITY     96.0000382689
 TTTTTTTTTTTTTTTTTTTTTTTTTTTTTT NUMDFT      TELAPSE       14.50 TCPU       11.59
 CYC   6 ETOT(AU) -3.957671142931E+03 DETOT -8.47E-07 tst  1.73E-08 PX  1.20E-04
 TTTTTTTTTTTTTTTTTTTTTTTTTTTTTT DIIS        TELAPSE       14.51 TCPU       11.60
 DIIS TEST: 0.46135E-07 AT SCF   CYCLE   6 - DIIS ACTIVE - HISTORY:     6 CYCLES
 TTTTTTTTTTTTTTTTTTTTTTTTTTTTTT FDIK        TELAPSE       14.52 TCPU       11.61
 INSULATING STATE
 TOP OF VALENCE BANDS -    BAND     48; K   65; EIG -3.0917898E-01 AU
 TOP OF VALENCE BANDS -    BAND     48; K    1; EIG -3.1249880E-01 AU
 BOTTOM OF VIRTUAL BANDS - BAND     49; K    1; EIG -4.0684588E-02 AU
 INDIRECT ENERGY BAND GAP:   7.3061 eV
 TTTTTTTTTTTTTTTTTTTTTTTTTTTTTT PDIG        TELAPSE       14.54 TCPU       11.63
 TTTTTTTTTTTTTTTTTTTTTTTTTTTTTT MOQGAD      TELAPSE       14.55 TCPU       11.63
 TTTTTTTTTTTTTTTTTTTTTTTTTTTTTT SHELLXN     TELAPSE       15.63 TCPU       12.70
 TTTTTTTTTTTTTTTTTTTTTTTTTTTTTT MONMO3      TELAPSE       15.63 TCPU       12.71
 NUMERICALLY INTEGRATED DENSITY     96.0000382704
 TTTTTTTTTTTTTTTTTTTTTTTTTTTTTT NUMDFT      TELAPSE       15.69 TCPU       12.76
 CYC   7 ETOT(AU) -3.957671142941E+03 DETOT -1.04E-08 tst  1.84E-10 PX  1.35E-05
 TTTTTTTTTTTTTTTTTTTTTTTTTTTTTT DIIS        TELAPSE       15.69 TCPU       12.77
 DIIS TEST: 0.74553E-09 AT SCF   CYCLE   7 - DIIS ACTIVE - HISTORY:     7 CYCLES
 TTTTTTTTTTTTTTTTTTTTTTTTTTTTTT FDIK        TELAPSE       15.70 TCPU       12.78
 INSULATING STATE
 TOP OF VALENCE BANDS -    BAND     48; K   65; EIG -3.0917712E-01 AU
 TOP OF VALENCE BANDS -    BAND     48; K    1; EIG -3.1249691E-01 AU
 BOTTOM OF VIRTUAL BANDS - BAND     49; K    1; EIG -4.0681843E-02 AU
 INDIRECT ENERGY BAND GAP:   7.3061 eV
 TTTTTTTTTTTTTTTTTTTTTTTTTTTTTT PDIG        TELAPSE       15.73 TCPU       12.80
 TTTTTTTTTTTTTTTTTTTTTTTTTTTTTT MOQGAD      TELAPSE       15.73 TCPU       12.80
 TTTTTTTTTTTTTTTTTTTTTTTTTTTTTT SHELLXN     TELAPSE       16.81 TCPU       13.87
 TTTTTTTTTTTTTTTTTTTTTTTTTTTTTT MONMO3      TELAPSE       16.81 TCPU       13.88
 NUMERICALLY INTEGRATED DENSITY     96.0000382706
 TTTTTTTTTTTTTTTTTTTTTTTTTTTTTT NUMDFT      TELAPSE       16.87 TCPU       13.94
 CYC   8 ETOT(AU) -3.957671142946E+03 DETOT -4.72E-09 tst  6.88E-12 PX  2.21E-06
 TTTTTTTTTTTTTTTTTTTTTTTTTTTTTT DIIS        TELAPSE       16.88 TCPU       13.94
 DIIS TEST: 0.28240E-11 AT SCF   CYCLE   8 - DIIS ACTIVE - HISTORY:     8 CYCLES
 TTTTTTTTTTTTTTTTTTTTTTTTTTTTTT FDIK        TELAPSE       16.89 TCPU       13.95
 INSULATING STATE
 TOP OF VALENCE BANDS -    BAND     48; K   65; EIG -3.0917719E-01 AU
 TOP OF VALENCE BANDS -    BAND     48; K    1; EIG -3.1249699E-01 AU
 BOTTOM OF VIRTUAL BANDS - BAND     49; K    1; EIG -4.0681896E-02 AU
 INDIRECT ENERGY BAND GAP:   7.3061 eV
 TTTTTTTTTTTTTTTTTTTTTTTTTTTTTT PDIG        TELAPSE       16.91 TCPU       13.97
 TTTTTTTTTTTTTTTTTTTTTTTTTTTTTT MOQGAD      TELAPSE       16.91 TCPU       13.97
 TTTTTTTTTTTTTTTTTTTTTTTTTTTTTT SHELLXN     TELAPSE       17.99 TCPU       15.05
 TTTTTTTTTTTTTTTTTTTTTTTTTTTTTT MONMO3      TELAPSE       18.00 TCPU       15.05
 NUMERICALLY INTEGRATED DENSITY     96.0000382706
 TTTTTTTTTTTTTTTTTTTTTTTTTTTTTT NUMDFT      TELAPSE       18.06 TCPU       15.11
 CYC   9 ETOT(AU) -3.957671142946E+03 DETOT -8.64E-11 tst  2.88E-14 PX  1.98E-07
 TTTTTTTTTTTTTTTTTTTTTTTTTTTTTT DIIS        TELAPSE       18.06 TCPU       15.11
 DIIS TEST: 0.36042E-13 AT SCF   CYCLE   9 - DIIS ACTIVE - HISTORY:     9 CYCLES
 TTTTTTTTTTTTTTTTTTTTTTTTTTTTTT FDIK        TELAPSE       18.07 TCPU       15.12
 INSULATING STATE
 TOP OF VALENCE BANDS -    BAND     48; K   65; EIG -3.0917722E-01 AU
 TOP OF VALENCE BANDS -    BAND     48; K    1; EIG -3.1249701E-01 AU
 BOTTOM OF VIRTUAL BANDS - BAND     49; K    1; EIG -4.0681917E-02 AU
 INDIRECT ENERGY BAND GAP:   7.3061 eV
 TTTTTTTTTTTTTTTTTTTTTTTTTTTTTT PDIG        TELAPSE       18.09 TCPU       15.15
 TTTTTTTTTTTTTTTTTTTTTTTTTTTTTT MOQGAD      TELAPSE       18.10 TCPU       15.15
 TTTTTTTTTTTTTTTTTTTTTTTTTTTTTT SHELLXN     TELAPSE       19.18 TCPU       16.22
 TTTTTTTTTTTTTTTTTTTTTTTTTTTTTT MONMO3      TELAPSE       19.18 TCPU       16.22
 NUMERICALLY INTEGRATED DENSITY     96.0000382706
 TTTTTTTTTTTTTTTTTTTTTTTTTTTTTT NUMDFT      TELAPSE       19.24 TCPU       16.28
 CYC  10 ETOT(AU) -3.957671142946E+03 DETOT -4.00E-11 tst  4.21E-16 PX  2.57E-08
 TTTTTTTTTTTTTTTTTTTTTTTTTTTTTT DIIS        TELAPSE       19.25 TCPU       16.29
 DIIS TEST: 0.69647E-16 AT SCF   CYCLE  10 - DIIS ACTIVE - HISTORY:    10 CYCLES
 TTTTTTTTTTTTTTTTTTTTTTTTTTTTTT FDIK        TELAPSE       19.26 TCPU       16.31
 INSULATING STATE
 TOP OF VALENCE BANDS -    BAND     48; K   65; EIG -3.0917721E-01 AU
 TOP OF VALENCE BANDS -    BAND     48; K    1; EIG -3.1249701E-01 AU
 BOTTOM OF VIRTUAL BANDS - BAND     49; K    1; EIG -4.0681916E-02 AU
 INDIRECT ENERGY BAND GAP:   7.3061 eV
 TTTTTTTTTTTTTTTTTTTTTTTTTTTTTT PDIG        TELAPSE       19.29 TCPU       16.33
 TTTTTTTTTTTTTTTTTTTTTTTTTTTTTT MOQGAD      TELAPSE       19.29 TCPU       16.33
 TTTTTTTTTTTTTTTTTTTTTTTTTTTTTT SHELLXN     TELAPSE       20.37 TCPU       17.40
 TTTTTTTTTTTTTTTTTTTTTTTTTTTTTT MONMO3      TELAPSE       20.37 TCPU       17.41
 NUMERICALLY INTEGRATED DENSITY     96.0000382706
 TTTTTTTTTTTTTTTTTTTTTTTTTTTTTT NUMDFT      TELAPSE       20.43 TCPU       17.46
 CYC  11 ETOT(AU) -3.957671142946E+03 DETOT  4.55E-12 tst  4.29E-18 PX  2.98E-09
 TTTTTTTTTTTTTTTTTTTTTTTTTTTTTT DIIS        TELAPSE       20.43 TCPU       17.47
 DIIS TEST: 0.32158E-18 AT SCF   CYCLE  11 - DIIS ACTIVE - HISTORY:     9 CYCLES
 TTTTTTTTTTTTTTTTTTTTTTTTTTTTTT FDIK        TELAPSE       20.51 TCPU       17.54
 INSULATING STATE
 TOP OF VALENCE BANDS -    BAND     48; K   65; EIG -3.0917721E-01 AU
 TOP OF VALENCE BANDS -    BAND     48; K    1; EIG -3.1249701E-01 AU
 BOTTOM OF VIRTUAL BANDS - BAND     49; K    1; EIG -4.0681916E-02 AU
 INDIRECT ENERGY BAND GAP:   7.3061 eV
 TTTTTTTTTTTTTTTTTTTTTTTTTTTTTT PDIG        TELAPSE       20.53 TCPU       17.56
 TTTTTTTTTTTTTTTTTTTTTTTTTTTTTT MOQGAD      TELAPSE       20.53 TCPU       17.56
 TTTTTTTTTTTTTTTTTTTTTTTTTTTTTT SHELLXN     TELAPSE       21.61 TCPU       18.64
 ::: PSEUDO TOTAL   ENERGY                        -3.8188657503399E+03
 ::: VIRIAL COEFFICIENT                            1.0168436300613E+00
 TTTTTTTTTTTTTTTTTTTTTTTTTTTTTT MONMO3      TELAPSE       21.62 TCPU       18.64
 NUMERICALLY INTEGRATED DENSITY     96.0000382706
 EXCHANGE ENERGY: -0.134646319485E+03  CORRELATION ENERGY: -0.415907312148E+01
 TTTTTTTTTTTTTTTTTTTTTTTTTTTTTT NUMDFT      TELAPSE       21.68 TCPU       18.70
 CYC  12 ETOT(AU) -3.957671142946E+03 DETOT -1.82E-12 tst  2.74E-20 PX  2.98E-09

 == SCF ENDED - CONVERGENCE ON ENERGY      E(AU) -3.9576711429463E+03 CYCLES  12


 ENERGY EXPRESSION=HARTREE+FOCK EXCH*0.25000+(PBE        EXCH)*0.75000+PBE        CORR


 TOTAL ENERGY(DFT)(AU)( 12) -3.9576711429463E+03 DE-1.8E-12 tester 2.7E-20
 TTTTTTTTTTTTTTTTTTTTTTTTTTTTTT EDFT        TELAPSE       21.68 TCPU       18.70

 *******************************************************************************
 *                             FORCE CALCULATION                               *
 *******************************************************************************

 TTTTTTTTTTTTTTTTTTTTTTTTTTTTTT NUMDFG      TELAPSE       21.83 TCPU       18.85
 INFORMATION **** EXCPOG **** EXCH. BIPO BUFFER LENGTH (WORDS) =     2811312
 INFORMATION **** GENPOG **** BIPO BUFFER LENGTH (WORDS) =      613600
 TTTTTTTTTTTTTTTTTTTTTTTTTTTTTT SHELXG      TELAPSE       28.96 TCPU       25.94

 CARTESIAN FORCES IN HARTREE/BOHR (ANALYTICAL)
   ATOM                     X                   Y                   Z
   1  30            -5.368261877771E-15 -1.554312234475E-15 -2.541073280314E-15
   2  30             4.832805694205E-16  1.421085471520E-14  2.350981910397E-15
   3   9            -7.587052198055E-05  7.587052199209E-05 -6.469252658635E-16
   4   9             7.587052199742E-05 -7.587052199254E-05 -7.063916880598E-16
   5   9            -7.587052201874E-05 -7.587052201918E-05  7.280062305426E-16
   6   9             7.587052200675E-05  7.587052200764E-05  8.201725828567E-16

 RESULTANT FORCE     0.000000000000E+00  6.661338147751E-16  4.770489558936E-18

 ATOMIC PART

 SYMMETRY ALLOWED FORCES (ANALYTICAL) (DIRECTION, FORCE)

    1 -2.1459424E-04

 CELL PART

 GRADIENT WITH RESPECT TO THE CELL PARAMETER IN HARTREE/BOHR
ORDER: -D/DA1X, -D/DA1Y, -D/DA1Z
       -D/DA2X, -D/DA2Y, -D/DA2Z
       -D/DA3X, -D/DA3Y, -D/DA3Z
  0.569583019097E-03  0.140090719034E-13  0.180983910298E-15
  0.858457262862E-14  0.569583019089E-03 -0.129606781713E-15
 -0.537490126208E-15  0.486074462793E-14  0.882175468952E-03

STRESS TENSOR, IN HARTREE/BOHR^3:
ORDER: 11 12 13
       21 22 23
       31 32 33
 -0.108209873314E-04 -0.163090451340E-15  0.680260191018E-17
 -0.266145556501E-15 -0.108209873313E-04 -0.615187313749E-16
 -0.343834794028E-17  0.246228081941E-17 -0.111650209699E-04

PRESSURE FROM THE STRESS TENSOR,
IN HARTREE/BOHR^3:  0.10936E-04
PRESSURE IN GIGAPASCAL:  0.3217E+00
CONVERSION FACTOR: 1 HARTREE/BOHR^3= 29421 GIGAPASCAL
WHEN USING VALUES FOR BOHR RADIUS AND HARTREE
FROM IUPAC WEBSITE, APRIL 2009
ENTHALPY: -3.9576660263274E+03

 SYMMETRY ALLOWED FORCES (ANALYTICAL) (DIRECTION, FORCE)

    1  1.4830878E-03    2 -2.3604224E-05
 TTTTTTTTTTTTTTTTTTTTTTTTTTTTTT TOTGRA      TELAPSE       29.03 TCPU       26.01
 INFORMATION **** optc001 **** GEOMETRY OUTPUT FILE
 CLASSICAL MODEL (SCHLEGEL) USED AS INITIAL HESSIAN MATRIX
 REFERENCE GEOMETRY DEFINED

 MAX GRADIENT      0.001483  THRESHOLD              0.000045 CONVERGED NO
 RMS GRADIENT      0.000865  THRESHOLD              0.000030 CONVERGED NO

 GRADIENT NORM     0.001499  GRADIENT THRESHOLD     0.500000

 EIGENVALUES OF THE ESTIMATED HESSIAN
  0.1847      0.2262      0.3571    

 INITIAL TRUST RADIUS    0.5000000000E+00

 PREDICTED ENERGY CHANGE    -0.535E-05

 INITIAL DISPLACEMENTS
 -0.001034  0.007071  0.000628
 TTTTTTTTTTTTTTTTTTTTTTTTTTTTTT OPTI        TELAPSE       29.14 TCPU       26.11

 OPTOPTOPTOPTOPTOPTOPTOPTOPTOPTOPTOPTOPTOPTOPTOPTOPTOPTOPTOPTOPTOPTOPTOPTOPTOPT

 - INFORMATION ON SCF MOVED TO SCFOUT.LOG
 GEOMETRY OPTIMIZATION INFORMATION STORED IN OPTINFO.DAT

 OPTOPTOPTOPTOPTOPTOPTOPTOPTOPTOPTOPTOPTOPTOPTOPTOPTOPTOPTOPTOPTOPTOPTOPTOPTOPT
 *******************************************************************************
 COORDINATE AND CELL OPTIMIZATION - POINT    2
 *******************************************************************************
 LATTICE PARAMETERS (ANGSTROMS AND DEGREES) - BOHR = 0.5291772083 ANGSTROM
 PRIMITIVE CELL - CENTRING CODE 1/0 VOLUME=    69.475404 - DENSITY  4.872 g/cm^3
         A              B              C           ALPHA      BETA       GAMMA 
     4.70723010     4.70723010     3.13545249    90.000000  90.000000  90.000000
 *******************************************************************************
 ATOMS IN THE ASYMMETRIC UNIT    2 - ATOMS IN THE UNIT CELL:    6
     ATOM                 X/A                 Y/B                 Z/C    
 *******************************************************************************
      1 T  30 ZN   -5.000000000000E-01 -5.000000000000E-01 -5.000000000000E-01
      2 F  30 ZN    0.000000000000E+00 -1.110223024625E-16  0.000000000000E+00
      3 T   9 F     1.964588696957E-01 -1.964588696957E-01 -5.000000000000E-01
      4 F   9 F    -1.964588696957E-01  1.964588696957E-01 -5.000000000000E-01
      5 F   9 F    -3.035411303043E-01 -3.035411303043E-01  0.000000000000E+00
      6 F   9 F     3.035411303043E-01  3.035411303043E-01  0.000000000000E+00

 T = ATOM BELONGING TO THE ASYMMETRIC UNIT

 TOTAL ENERGY(DFT)(AU)(  7) -3.9576711504491E+03     DE (AU)   -7.503E-06

 UPDATED TRUST RADIUS     0.500E+00

 SYMMETRY ALLOWED FORCES  (COORDINATE, FORCE)

    1 -2.3287044E-04    2  3.4198061E-04    3  4.6244534E-05

 GRADIENT NORM     0.000416  GRADIENT THRESHOLD     0.500000

 EIGENVALUES OF THE ESTIMATED HESSIAN
  0.1469      0.2068      0.3675    

 PREDICTED ENERGY CHANGE    -0.541E-06

 MAX GRADIENT      0.000342  THRESHOLD              0.000045 CONVERGED NO
 RMS GRADIENT      0.000240  THRESHOLD              0.000030 CONVERGED NO
 MAX DISPLAC.      0.002398  THRESHOLD              0.000180 CONVERGED NO
 RMS DISPLAC.      0.001528  THRESHOLD              0.000120 CONVERGED NO
 TTTTTTTTTTTTTTTTTTTTTTTTTTTTTT OPTI        TELAPSE       46.93 TCPU       43.77
 *******************************************************************************
 COORDINATE AND CELL OPTIMIZATION - POINT    3
 *******************************************************************************
 LATTICE PARAMETERS (ANGSTROMS AND DEGREES) - BOHR = 0.5291772083 ANGSTROM
 PRIMITIVE CELL - CENTRING CODE 1/0 VOLUME=    69.523709 - DENSITY  4.869 g/cm^3
         A              B              C           ALPHA      BETA       GAMMA 
     4.70846721     4.70846721     3.13598398    90.000000  90.000000  90.000000
 *******************************************************************************
 ATOMS IN THE ASYMMETRIC UNIT    2 - ATOMS IN THE UNIT CELL:    6
     ATOM                 X/A                 Y/B                 Z/C    
 *******************************************************************************
      1 T  30 ZN    5.000000000000E-01  5.000000000000E-01  5.000000000000E-01
      2 F  30 ZN    0.000000000000E+00 -1.110223024625E-16  0.000000000000E+00
      3 T   9 F     1.964176576169E-01 -1.964176576169E-01  5.000000000000E-01
      4 F   9 F    -1.964176576169E-01  1.964176576169E-01  5.000000000000E-01
      5 F   9 F    -3.035823423831E-01 -3.035823423831E-01  0.000000000000E+00
      6 F   9 F     3.035823423831E-01  3.035823423831E-01  0.000000000000E+00

 T = ATOM BELONGING TO THE ASYMMETRIC UNIT

 TOTAL ENERGY(DFT)(AU)( 10) -3.9576711521741E+03     DE (AU)   -1.725E-06

 UPDATED TRUST RADIUS     0.500E+00

 SYMMETRY ALLOWED FORCES  (COORDINATE, FORCE)

    1 -1.6768334E-04    2 -2.7458424E-05    3  4.7117436E-05

 GRADIENT NORM     0.000176  GRADIENT THRESHOLD     0.500000

 EIGENVALUES OF THE ESTIMATED HESSIAN
  0.1284      0.2036      0.3764    

 PREDICTED ENERGY CHANGE    -0.551E-07

 MAX GRADIENT      0.000168  THRESHOLD              0.000045 CONVERGED NO
 RMS GRADIENT      0.000102  THRESHOLD              0.000030 CONVERGED NO
 MAX DISPLAC.      0.000640  THRESHOLD              0.000180 CONVERGED NO
 RMS DISPLAC.      0.000409  THRESHOLD              0.000120 CONVERGED NO
 TTTTTTTTTTTTTTTTTTTTTTTTTTTTTT OPTI        TELAPSE       70.56 TCPU       67.22
 *******************************************************************************
 COORDINATE AND CELL OPTIMIZATION - POINT    4
 *******************************************************************************
 LATTICE PARAMETERS (ANGSTROMS AND DEGREES) - BOHR = 0.5291772083 ANGSTROM
 PRIMITIVE CELL - CENTRING CODE 1/0 VOLUME=    69.528420 - DENSITY  4.869 g/cm^3
         A              B              C           ALPHA      BETA       GAMMA 
     4.70864180     4.70864180     3.13596388    90.000000  90.000000  90.000000
 *******************************************************************************
 ATOMS IN THE ASYMMETRIC UNIT    2 - ATOMS IN THE UNIT CELL:    6
     ATOM                 X/A                 Y/B                 Z/C    
 *******************************************************************************
      1 T  30 ZN   -5.000000000000E-01 -5.000000000000E-01 -5.000000000000E-01
      2 F  30 ZN    0.000000000000E+00 -1.110223024625E-16  0.000000000000E+00
      3 T   9 F     1.963922162201E-01 -1.963922162201E-01 -5.000000000000E-01
      4 F   9 F    -1.963922162201E-01  1.963922162201E-01 -5.000000000000E-01
      5 F   9 F    -3.036077837799E-01 -3.036077837799E-01  0.000000000000E+00
      6 F   9 F     3.036077837799E-01  3.036077837799E-01  0.000000000000E+00

 T = ATOM BELONGING TO THE ASYMMETRIC UNIT

 TOTAL ENERGY(DFT)(AU)(  9) -3.9576711524862E+03     DE (AU)   -3.121E-07

 UPDATED TRUST RADIUS     0.500E+00

 SYMMETRY ALLOWED FORCES  (COORDINATE, FORCE)

    1 -1.0494691E-04    2 -5.0571278E-05    3  2.9626787E-05

 GRADIENT NORM     0.000120  GRADIENT THRESHOLD     0.500000

 EIGENVALUES OF THE ESTIMATED HESSIAN
  0.9736E-01  0.1913      0.2351    

 PREDICTED ENERGY CHANGE    -0.540E-07

 MAX GRADIENT      0.000105  THRESHOLD              0.000045 CONVERGED NO
 RMS GRADIENT      0.000069  THRESHOLD              0.000030 CONVERGED NO
 MAX DISPLAC.      0.000929  THRESHOLD              0.000180 CONVERGED NO
 RMS DISPLAC.      0.000556  THRESHOLD              0.000120 CONVERGED NO
 TTTTTTTTTTTTTTTTTTTTTTTTTTTTTT OPTI        TELAPSE       90.56 TCPU       87.06
 *******************************************************************************
 COORDINATE AND CELL OPTIMIZATION - POINT    5
 *******************************************************************************
 LATTICE PARAMETERS (ANGSTROMS AND DEGREES) - BOHR = 0.5291772083 ANGSTROM
 PRIMITIVE CELL - CENTRING CODE 1/0 VOLUME=    69.527140 - DENSITY  4.869 g/cm^3
         A              B              C           ALPHA      BETA       GAMMA 
     4.70869885     4.70869885     3.13583016    90.000000  90.000000  90.000000
 *******************************************************************************
 ATOMS IN THE ASYMMETRIC UNIT    2 - ATOMS IN THE UNIT CELL:    6
     ATOM                 X/A                 Y/B                 Z/C    
 *******************************************************************************
      1 T  30 ZN    5.000000000000E-01 -5.000000000000E-01  5.000000000000E-01
      2 F  30 ZN    0.000000000000E+00 -1.110223024625E-16  0.000000000000E+00
      3 T   9 F     1.963552680389E-01 -1.963552680389E-01  5.000000000000E-01
      4 F   9 F    -1.963552680389E-01  1.963552680389E-01  5.000000000000E-01
      5 F   9 F    -3.036447319611E-01 -3.036447319611E-01  0.000000000000E+00
      6 F   9 F     3.036447319611E-01  3.036447319611E-01  0.000000000000E+00

 T = ATOM BELONGING TO THE ASYMMETRIC UNIT

 TOTAL ENERGY(DFT)(AU)(  9) -3.9576711527261E+03     DE (AU)   -2.399E-07

 UPDATED TRUST RADIUS     0.500E+00

 SYMMETRY ALLOWED FORCES  (COORDINATE, FORCE)

    1 -6.7441118E-06    2 -1.8159000E-05    3 -7.1035064E-07

 GRADIENT NORM     0.000019  GRADIENT THRESHOLD     0.500000

 EIGENVALUES OF THE ESTIMATED HESSIAN
  0.1010      0.1817      0.2224    

 PREDICTED ENERGY CHANGE    -0.974E-09

 MAX GRADIENT      0.000018  THRESHOLD              0.000045 CONVERGED YES
 RMS GRADIENT      0.000011  THRESHOLD              0.000030 CONVERGED YES
 MAX DISPLAC.      0.000089  THRESHOLD              0.000180 CONVERGED YES
 RMS DISPLAC.      0.000059  THRESHOLD              0.000120 CONVERGED YES

 CONVERGENCE TESTS SATISFIED AFTER   5 ENERGY AND GRADIENT CALCULATIONS
 +++++++++++++++++++++++++++++++++++++++++++++++++++++++++++++++++++++++++++++++
 FINALRUN OPTION: RE-STARTING OPTIMIZATION
 +++++++++++++++++++++++++++++++++++++++++++++++++++++++++++++++++++++++++++++++
 TTTTTTTTTTTTTTTTTTTTTTTTTTTTTT OPTI        TELAPSE      110.83 TCPU      107.16
 *******************************************************************************
 COORDINATE AND CELL OPTIMIZATION - POINT    6
 *******************************************************************************
 LATTICE PARAMETERS (ANGSTROMS AND DEGREES) - BOHR = 0.5291772083 ANGSTROM
 PRIMITIVE CELL - CENTRING CODE 1/0 VOLUME=    69.525340 - DENSITY  4.869 g/cm^3
         A              B              C           ALPHA      BETA       GAMMA 
     4.70865487     4.70865487     3.13580757    90.000000  90.000000  90.000000
 *******************************************************************************
 ATOMS IN THE ASYMMETRIC UNIT    2 - ATOMS IN THE UNIT CELL:    6
     ATOM                 X/A                 Y/B                 Z/C    
 *******************************************************************************
      1 T  30 ZN   -5.000000000000E-01  5.000000000000E-01  5.000000000000E-01
      2 F  30 ZN    0.000000000000E+00 -1.110223024625E-16  0.000000000000E+00
      3 T   9 F     1.963533880695E-01 -1.963533880695E-01  5.000000000000E-01
      4 F   9 F    -1.963533880695E-01  1.963533880695E-01  5.000000000000E-01
      5 F   9 F    -3.036466119305E-01 -3.036466119305E-01  0.000000000000E+00
      6 F   9 F     3.036466119305E-01  3.036466119305E-01  0.000000000000E+00

 T = ATOM BELONGING TO THE ASYMMETRIC UNIT

 REFERENCE GEOMETRY WILL BE CHANGED

 TOTAL ENERGY(DFT)(AU)(  8) -3.9576711528131E+03     DE (AU)   -8.698E-08

 SYMMETRY ALLOWED FORCES  (COORDINATE, FORCE)

    1 -2.1792601E-07    2  3.3825992E-06    3  5.2664256E-06

 GRADIENT NORM     0.000006  GRADIENT THRESHOLD     0.500000

 HESSIAN UPDATE SKIPPED

 EIGENVALUES OF THE ESTIMATED HESSIAN
  0.1010      0.1817      0.2224    

 PREDICTED ENERGY CHANGE    -0.119E-09

 MAX GRADIENT      0.000005  THRESHOLD              0.000045 CONVERGED YES
 RMS GRADIENT      0.000004  THRESHOLD              0.000030 CONVERGED YES
 MAX DISPLAC.      0.000031  THRESHOLD              0.000180 CONVERGED YES
 RMS DISPLAC.      0.000023  THRESHOLD              0.000120 CONVERGED YES

 CONVERGENCE TESTS SATISFIED AFTER   6 ENERGY AND GRADIENT CALCULATIONS

 ******************************************************************
 * OPT END - CONVERGED * E(AU):  -3.957671152813E+03  POINTS    6 *
 ******************************************************************

   BAND GAP:                      7.2984  eV 

 EIGENVECTORS IN FORTRAN UNIT 10

 NEIGHBORS OF THE NON-EQUIVALENT ATOMS

 N = NUMBER OF NEIGHBORS AT DISTANCE R
    ATOM  N     R/ANG      R/AU   NEIGHBORS (ATOM LABELS AND CELL INDICES)
   1 ZN   2     2.0220     3.8210    3 F    0 1 0    4 F    1 0 0
   1 ZN   4     2.0416     3.8580    5 F    1 1 0    5 F    1 1 1    6 F    0 0 0
                                     6 F    0 0 1
   1 ZN   2     3.1358     5.9258    1 ZN   0 0-1    1 ZN   0 0 1
   1 ZN   4     3.5771     6.7597    3 F    0 0 0    3 F    1 1 0    4 F    1 1 0
                                     4 F    0 0 0
   1 ZN   8     3.6802     6.9546    2 ZN   0 0 0    2 ZN   0 0 1    2 ZN   1 0 0
                                     2 ZN   0 1 0    2 ZN   1 0 1    2 ZN   0 1 1
                                     2 ZN   1 1 0    2 ZN   1 1 1
   1 ZN   4     3.7312     7.0509    3 F    0 1 1    3 F    0 1-1    4 F    1 0 1
                                     4 F    1 0-1

   3 F    1     2.0220     3.8210    1 ZN   0-1 0
   3 F    2     2.0416     3.8580    2 ZN   0 0 0    2 ZN   0 0 1
   3 F    1     2.6151     4.9417    4 F    0 0 0
   3 F    8     2.8734     5.4299    5 F    0 0 0    5 F    0 0 1    5 F    1 0 0
                                     5 F    1 0 1    6 F    0 0 1    6 F    0 0 0
                                     6 F    0-1 1    6 F    0-1 0
   3 F    2     3.1358     5.9258    3 F    0 0-1    3 F    0 0 1
   3 F    2     3.4053     6.4351    4 F    1 0 0    4 F    0-1 0


 FINAL OPTIMIZED GEOMETRY - DIMENSIONALITY OF THE SYSTEM      3
 (NON PERIODIC DIRECTION: LATTICE PARAMETER FORMALLY SET TO 500)
 *******************************************************************************
 LATTICE PARAMETERS (ANGSTROMS AND DEGREES) - BOHR = 0.5291772083 ANGSTROM
 PRIMITIVE CELL - CENTRING CODE 1/0 VOLUME=    69.525340 - DENSITY  4.869 g/cm^3
         A              B              C           ALPHA      BETA       GAMMA 
     4.70865487     4.70865487     3.13580757    90.000000  90.000000  90.000000
 *******************************************************************************
 ATOMS IN THE ASYMMETRIC UNIT    2 - ATOMS IN THE UNIT CELL:    6
     ATOM                 X/A                 Y/B                 Z/C    
 *******************************************************************************
      1 T  30 ZN   -5.000000000000E-01  5.000000000000E-01  5.000000000000E-01
      2 F  30 ZN    0.000000000000E+00 -1.110223024625E-16  0.000000000000E+00
      3 T   9 F     1.963533880695E-01 -1.963533880695E-01  5.000000000000E-01
      4 F   9 F    -1.963533880695E-01  1.963533880695E-01  5.000000000000E-01
      5 F   9 F    -3.036466119305E-01 -3.036466119305E-01  0.000000000000E+00
      6 F   9 F     3.036466119305E-01  3.036466119305E-01  0.000000000000E+00

 T = ATOM BELONGING TO THE ASYMMETRIC UNIT
 INFORMATION **** fort.34 **** GEOMETRY OUTPUT FILE

 DIRECT LATTICE VECTORS CARTESIAN COMPONENTS (ANGSTROM)
          X                    Y                    Z
   0.470865487108E+01   0.000000000000E+00   0.000000000000E+00
   0.000000000000E+00   0.470865487108E+01   0.000000000000E+00
   0.000000000000E+00   0.000000000000E+00   0.313580756923E+01


 CARTESIAN COORDINATES - PRIMITIVE CELL
 *******************************************************************************
 *      ATOM          X(ANGSTROM)         Y(ANGSTROM)         Z(ANGSTROM)
 *******************************************************************************
    1    30 ZN    2.354327435539E+00  2.354327435539E+00  1.567903784613E+00
    2    30 ZN    0.000000000000E+00 -5.227657052884E-16  0.000000000000E+00
    3     9 F     9.245603371862E-01 -9.245603371862E-01  1.567903784613E+00
    4     9 F    -9.245603371862E-01  9.245603371862E-01  1.567903784613E+00
    5     9 F    -1.429767098353E+00 -1.429767098353E+00  0.000000000000E+00
    6     9 F     1.429767098353E+00  1.429767098353E+00  0.000000000000E+00

 DFT PARAMETERS

     ATOM       ELECTRONS   NET CHARGE   R(ANGSTROM)
   1  30  ZN     30.0000      0.0000     1.37000000
   3   9  F       9.0000      0.0000     0.72000000

 SIZE OF GRID=      21528
 TTTTTTTTTTTTTTTTTTTTTTTTTTTTTT MAKE_GRID2  TELAPSE      131.85 TCPU      127.91
 BECKE WEIGHT FUNCTION
 RADSAFE =     2.00
 TOLERANCES - DENSITY:10**- 6; POTENTIAL:10**- 9; GRID WGT:10**-14

 RADIAL INTEGRATION  - INTERVALS (POINTS,UPPER LIMIT):            1( 99,  4.0*R)

 ANGULAR INTEGRATION - INTERVALS (ACCURACY LEVEL [N. POINTS] UPPER LIMIT):
  1(  6[ 146]   0.2)  2( 11[ 302]   0.5)  3( 14[ 590]   0.9)  4( 18[1454]   3.5)
  5( 14[ 590]9999.0)
 EEEEEEEEEE INT_CALC TERMINATION  DATE 05 09 2023 TIME 16:54:58.7

 *******************************************************************************
 ICSD_CollCode280605.cif                                                         
 CRYSTAL - SCF - TYPE OF CALCULATION :  RESTRICTED CLOSED SHELL
 *******************************************************************************

 CAPPA:IS1  8;IS2  8;IS3  8; K PTS MONK NET  75; SYMMOPS:K SPACE  16;G SPACE  16

 TTTTTTTTTTTTTTTTTTTTTTTTTTTTTT SDIK        TELAPSE      131.89 TCPU      127.94

 INFORMATION FROM INTEGRAL EVALUATION

 RESTART FROM A PREVIOUS DENSITY MATRIX - DEP ACTIVE
 NUMBER OF COUPLE SETS (NEW, OLD, FOUND):     507     507     507
 NUMBER OF IRREDUCIBLE G VECTORS        :    5373    5373    5373
 TTTTTTTTTTTTTTTTTTTTTTTTTTTTTT MOQGAD      TELAPSE      131.90 TCPU      127.95
 TTTTTTTTTTTTTTTTTTTTTTTTTTTTTT SHELLXN     TELAPSE      132.97 TCPU      129.02
 TTTTTTTTTTTTTTTTTTTTTTTTTTTTTT MONMO3      TELAPSE      132.98 TCPU      129.02
 NUMERICALLY INTEGRATED DENSITY     96.0000169063
 TTTTTTTTTTTTTTTTTTTTTTTTTTTTTT NUMDFT      TELAPSE      133.03 TCPU      129.08
 CYC   0 ETOT(AU) -3.957671152813E+03 DETOT -3.96E+03 tst  2.35E-20 PX  1.00E+00
 TTTTTTTTTTTTTTTTTTTTTTTTTTTTTT DIIS        TELAPSE      133.03 TCPU      129.08
 TTTTTTTTTTTTTTTTTTTTTTTTTTTTTT FDIK        TELAPSE      133.05 TCPU      129.08
 INSULATING STATE
 TOP OF VALENCE BANDS -    BAND     48; K   65; EIG -3.0977792E-01 AU
 TOP OF VALENCE BANDS -    BAND     48; K    1; EIG -3.1329521E-01 AU
 BOTTOM OF VIRTUAL BANDS - BAND     49; K    1; EIG -4.1566549E-02 AU
 INDIRECT ENERGY BAND GAP:   7.2984 eV
 TTTTTTTTTTTTTTTTTTTTTTTTTTTTTT PDIG        TELAPSE      133.08 TCPU      129.11
 TTTTTTTTTTTTTTTTTTTTTTTTTTTTTT MOQGAD      TELAPSE      133.08 TCPU      129.11
 TTTTTTTTTTTTTTTTTTTTTTTTTTTTTT SHELLXN     TELAPSE      134.15 TCPU      130.18
 TTTTTTTTTTTTTTTTTTTTTTTTTTTTTT MONMO3      TELAPSE      134.16 TCPU      130.18
 NUMERICALLY INTEGRATED DENSITY     96.0000169063
 TTTTTTTTTTTTTTTTTTTTTTTTTTTTTT NUMDFT      TELAPSE      134.21 TCPU      130.24
 CYC   1 ETOT(AU) -3.957671152813E+03 DETOT -2.73E-12 tst  0.00E+00 PX  4.47E-11
 TTTTTTTTTTTTTTTTTTTTTTTTTTTTTT DIIS        TELAPSE      134.23 TCPU      130.25
 DIIS TEST: 0.41770E-19 AT SCF   CYCLE   1 - MIX   30 %
 TTTTTTTTTTTTTTTTTTTTTTTTTTTTTT FDIK        TELAPSE      134.24 TCPU      130.27
 INSULATING STATE
 TOP OF VALENCE BANDS -    BAND     48; K   65; EIG -3.0977792E-01 AU
 TOP OF VALENCE BANDS -    BAND     48; K    1; EIG -3.1329521E-01 AU
 BOTTOM OF VIRTUAL BANDS - BAND     49; K    1; EIG -4.1566549E-02 AU
 INDIRECT ENERGY BAND GAP:   7.2984 eV
 TTTTTTTTTTTTTTTTTTTTTTTTTTTTTT PDIG        TELAPSE      134.27 TCPU      130.29
 TTTTTTTTTTTTTTTTTTTTTTTTTTTTTT MOQGAD      TELAPSE      134.27 TCPU      130.29
 TTTTTTTTTTTTTTTTTTTTTTTTTTTTTT SHELLXN     TELAPSE      135.35 TCPU      131.37
 ::: PSEUDO TOTAL   ENERGY                        -3.8188682961068E+03
 ::: VIRIAL COEFFICIENT                            1.0168412626966E+00
 TTTTTTTTTTTTTTTTTTTTTTTTTTTTTT MONMO3      TELAPSE      135.35 TCPU      131.37
 NUMERICALLY INTEGRATED DENSITY     96.0000169063
 EXCHANGE ENERGY: -0.134644288528E+03  CORRELATION ENERGY: -0.415856817784E+01
 TTTTTTTTTTTTTTTTTTTTTTTTTTTTTT NUMDFT      TELAPSE      135.41 TCPU      131.43
 CYC   2 ETOT(AU) -3.957671152813E+03 DETOT  6.82E-12 tst  1.52E-22 PX  4.47E-11

 == SCF ENDED - CONVERGENCE ON ENERGY      E(AU) -3.9576711528131E+03 CYCLES   2


 ENERGY EXPRESSION=HARTREE+FOCK EXCH*0.25000+(PBE        EXCH)*0.75000+PBE        CORR


 TOTAL ENERGY(DFT)(AU)(  2) -3.9576711528131E+03 DE 6.8E-12 tester 1.5E-22
 TTTTTTTTTTTTTTTTTTTTTTTTTTTTTT EDFT        TELAPSE      135.41 TCPU      131.43
 INSULATING STATE
 TOP OF VALENCE BANDS -    BAND     48; K   65; EIG -3.0977792E-01 AU
 TOP OF VALENCE BANDS -    BAND     48; K    1; EIG -3.1329521E-01 AU
 BOTTOM OF VIRTUAL BANDS - BAND     49; K    1; EIG -4.1566549E-02 AU
 INDIRECT ENERGY BAND GAP:   7.2984 eV
 EIGENVECTORS IN FORTRAN UNIT 10
 EEEEEEEEEE SCF TERMINATION  DATE 05 09 2023 TIME 16:55:02.4

     *********************************************************************
     * ***************************************************************** *
     * *        COUPLED-PERTURBED KOHN-SHAM CALCULATION (CPKS)         * *
     * *        REFERENCES TO BE QUOTED WHEN USING THIS MODULE:        * *
     * *        (1) M. Ferrero, M. Rerat, R. Orlando, R.Dovesi,        * *
     * *            J. Comput. Chem. 29 (2008), 1450;                  * *
     * *            J. Chem. Phys. 128 (2008), 014110.                 * *
     * *        (2) M. Ferrero, M. Rerat, B. Kirtman, R. Dovesi,       * *
     * *            J. Chem. Phys. 129 (2008), 244110.                 * *
     * ***************************************************************** *
     *********************************************************************

 INFORMATION **** CP_DRIVER **** CONVERGENCE ON ALPHA: 10**          -3
 INFORMATION **** CP_DRIVER **** MAX NUMBER OF CPHF/CPKS CYCLES         200
 INFORMATION **** CP_DRIVER **** CPHF/CPKS DAMPING PERCENTAGE:          60
 STATIC FIELD (OR H*NU < 1E-15 HA)

 *******************************************************************************

 ELECTRIC FIELD APPLIED ALONG CARTESIAN DIRECTION X

 *******************************************************************************
 THE NUMBER OF SYMMETRY OPERATORS HAS BEEN REDUCED FROM 16 TO  1

 NEW GRID IN RECIPROCAL SPACE
 *******************************************************************************
 POINTS IN THE IBZ                 260 SHRINKING FACTORS               8  8  8
 *******************************************************************************
 *** K POINTS COORDINATES (OBLIQUE COORDINATES IN UNITS OF SHRINK FAC. )
   1-R(  0  0  0)   2-C(  1  0  0)   3-C(  0  7  0)   4-C(  2  0  0)
   5-C(  0  6  0)   6-C(  3  0  0)   7-C(  0  5  0)   8-R(  4  0  0)
   9-R(  0  4  0)  10-C(  1  1  0)  11-C(  1  7  0)  12-C(  2  1  0)
  13-C(  2  7  0)  14-C(  7  6  0)  15-C(  1  6  0)  16-C(  3  1  0)
  17-C(  3  7  0)  18-C(  7  5  0)  19-C(  1  5  0)  20-C(  4  1  0)
  21-C(  7  4  0)  22-C(  2  2  0)  23-C(  2  6  0)  24-C(  3  2  0)
  25-C(  3  6  0)  26-C(  6  5  0)  27-C(  2  5  0)  28-C(  4  2  0)
  29-C(  6  4  0)  30-C(  3  3  0)  31-C(  3  5  0)  32-C(  4  3  0)
  33-C(  5  4  0)  34-R(  4  4  0)  35-C(  0  0  1)  36-C(  1  0  1)
  37-C(  7  0  1)  38-C(  0  7  7)  39-C(  0  1  7)  40-C(  2  0  1)
  41-C(  6  0  1)  42-C(  0  6  7)  43-C(  0  2  7)  44-C(  3  0  1)
  45-C(  5  0  1)  46-C(  0  5  7)  47-C(  0  3  7)  48-C(  4  0  1)
  49-C(  0  4  7)  50-C(  1  1  1)  51-C(  7  7  1)  52-C(  1  7  7)
  53-C(  7  1  7)  54-C(  2  1  1)  55-C(  6  7  1)  56-C(  2  7  7)
  57-C(  6  1  7)  58-C(  7  6  7)  59-C(  1  2  7)  60-C(  1  6  1)
  61-C(  7  2  1)  62-C(  3  1  1)  63-C(  5  7  1)  64-C(  3  7  7)
  65-C(  5  1  7)  66-C(  7  5  7)  67-C(  1  3  7)  68-C(  1  5  1)
  69-C(  7  3  1)  70-C(  4  1  1)  71-C(  4  7  1)  72-C(  7  4  7)
  73-C(  1  4  7)  74-C(  2  2  1)  75-C(  6  6  1)  76-C(  2  6  7)
  77-C(  6  2  7)  78-C(  3  2  1)  79-C(  5  6  1)  80-C(  3  6  7)
  81-C(  5  2  7)  82-C(  6  5  7)  83-C(  2  3  7)  84-C(  2  5  1)
  85-C(  6  3  1)  86-C(  4  2  1)  87-C(  4  6  1)  88-C(  6  4  7)
  89-C(  2  4  7)  90-C(  3  3  1)  91-C(  5  5  1)  92-C(  3  5  7)
  93-C(  5  3  7)  94-C(  4  3  1)  95-C(  4  5  1)  96-C(  5  4  7)
  97-C(  3  4  7)  98-C(  4  4  1)  99-C(  0  0  2) 100-C(  1  0  2)
 101-C(  7  0  2) 102-C(  0  7  6) 103-C(  0  1  6) 104-C(  2  0  2)
 105-C(  6  0  2) 106-C(  0  6  6) 107-C(  0  2  6) 108-C(  3  0  2)
 109-C(  5  0  2) 110-C(  0  5  6) 111-C(  0  3  6) 112-C(  4  0  2)
 113-C(  0  4  6) 114-C(  1  1  2) 115-C(  7  7  2) 116-C(  1  7  6)
 117-C(  7  1  6) 118-C(  2  1  2) 119-C(  6  7  2) 120-C(  2  7  6)
 121-C(  6  1  6) 122-C(  7  6  6) 123-C(  1  2  6) 124-C(  1  6  2)
 125-C(  7  2  2) 126-C(  3  1  2) 127-C(  5  7  2) 128-C(  3  7  6)
 129-C(  5  1  6) 130-C(  7  5  6) 131-C(  1  3  6) 132-C(  1  5  2)
 133-C(  7  3  2) 134-C(  4  1  2) 135-C(  4  7  2) 136-C(  7  4  6)
 137-C(  1  4  6) 138-C(  2  2  2) 139-C(  6  6  2) 140-C(  2  6  6)
 141-C(  6  2  6) 142-C(  3  2  2) 143-C(  5  6  2) 144-C(  3  6  6)
 145-C(  5  2  6) 146-C(  6  5  6) 147-C(  2  3  6) 148-C(  2  5  2)
 149-C(  6  3  2) 150-C(  4  2  2) 151-C(  4  6  2) 152-C(  6  4  6)
 153-C(  2  4  6) 154-C(  3  3  2) 155-C(  5  5  2) 156-C(  3  5  6)
 157-C(  5  3  6) 158-C(  4  3  2) 159-C(  4  5  2) 160-C(  5  4  6)
 161-C(  3  4  6) 162-C(  4  4  2) 163-C(  0  0  3) 164-C(  1  0  3)
 165-C(  7  0  3) 166-C(  0  7  5) 167-C(  0  1  5) 168-C(  2  0  3)
 169-C(  6  0  3) 170-C(  0  6  5) 171-C(  0  2  5) 172-C(  3  0  3)
 173-C(  5  0  3) 174-C(  0  5  5) 175-C(  0  3  5) 176-C(  4  0  3)
 177-C(  0  4  5) 178-C(  1  1  3) 179-C(  7  7  3) 180-C(  1  7  5)
 181-C(  7  1  5) 182-C(  2  1  3) 183-C(  6  7  3) 184-C(  2  7  5)
 185-C(  6  1  5) 186-C(  7  6  5) 187-C(  1  2  5) 188-C(  1  6  3)
 189-C(  7  2  3) 190-C(  3  1  3) 191-C(  5  7  3) 192-C(  3  7  5)
 193-C(  5  1  5) 194-C(  7  5  5) 195-C(  1  3  5) 196-C(  1  5  3)
 197-C(  7  3  3) 198-C(  4  1  3) 199-C(  4  7  3) 200-C(  7  4  5)
 201-C(  1  4  5) 202-C(  2  2  3) 203-C(  6  6  3) 204-C(  2  6  5)
 205-C(  6  2  5) 206-C(  3  2  3) 207-C(  5  6  3) 208-C(  3  6  5)
 209-C(  5  2  5) 210-C(  6  5  5) 211-C(  2  3  5) 212-C(  2  5  3)
 213-C(  6  3  3) 214-C(  4  2  3) 215-C(  4  6  3) 216-C(  6  4  5)
 217-C(  2  4  5) 218-C(  3  3  3) 219-C(  5  5  3) 220-C(  3  5  5)
 221-C(  5  3  5) 222-C(  4  3  3) 223-C(  4  5  3) 224-C(  5  4  5)
 225-C(  3  4  5) 226-C(  4  4  3) 227-R(  0  0  4) 228-C(  1  0  4)
 229-C(  0  7  4) 230-C(  2  0  4) 231-C(  0  6  4) 232-C(  3  0  4)
 233-C(  0  5  4) 234-R(  4  0  4) 235-R(  0  4  4) 236-C(  1  1  4)
 237-C(  1  7  4) 238-C(  2  1  4) 239-C(  2  7  4) 240-C(  7  6  4)
 241-C(  1  6  4) 242-C(  3  1  4) 243-C(  3  7  4) 244-C(  7  5  4)
 245-C(  1  5  4) 246-C(  4  1  4) 247-C(  7  4  4) 248-C(  2  2  4)
 249-C(  2  6  4) 250-C(  3  2  4) 251-C(  3  6  4) 252-C(  6  5  4)
 253-C(  2  5  4) 254-C(  4  2  4) 255-C(  6  4  4) 256-C(  3  3  4)
 257-C(  3  5  4) 258-C(  4  3  4) 259-C(  5  4  4) 260-R(  4  4  4)

 GCALCO - MAX INDICES DIRECT LATTICE VECTOR    12    12    19
 NO.OF VECTORS CREATED 6999 STARS  530 RMAX    92.08369 BOHR
 TTTTTTTTTTTTTTTTTTTTTTTTTTTTTT gordsh1     TELAPSE      136.23 TCPU      132.23

 MATRIX SIZE: P(G)  684884, F(G)   56080, P(G) IRR  350570, F(G) IRR   57110
 MAX G-VECTOR INDEX FOR 1- AND 2-ELECTRON INTEGRALS 499

 TTTTTTTTTTTTTTTTTTTTTTTTTTTTTT INPUT       TELAPSE      136.24 TCPU      132.24
 TTTTTTTTTTTTTTTTTTTTTTTTTTTTTT SYMM        TELAPSE      136.24 TCPU      132.24

 ***** NEW REFERENCE GEOMETRY *****
 TTTTTTTTTTTTTTTTTTTTTTTTTTTTTT INT_SCREEN  TELAPSE      136.25 TCPU      132.25

 DFT PARAMETERS

     ATOM       ELECTRONS   NET CHARGE   R(ANGSTROM)
   1  30  ZN     30.0000      0.0000     1.37000000
   3   9  F       9.0000      0.0000     0.72000000

 SIZE OF GRID=     310944
 TTTTTTTTTTTTTTTTTTTTTTTTTTTTTT MAKE_GRID2  TELAPSE      138.59 TCPU      134.57
 BECKE WEIGHT FUNCTION
 RADSAFE =     2.00
 TOLERANCES - DENSITY:10**- 6; POTENTIAL:10**- 9; GRID WGT:10**-14

 RADIAL INTEGRATION  - INTERVALS (POINTS,UPPER LIMIT):            1( 99,  4.0*R)

 ANGULAR INTEGRATION - INTERVALS (ACCURACY LEVEL [N. POINTS] UPPER LIMIT):
  1(  6[ 146]   0.2)  2( 11[ 302]   0.5)  3( 14[ 590]   0.9)  4( 18[1454]   3.5)
  5( 14[ 590]9999.0)
 CYCLE   0   ALPHA   31.798644  EPSILON    1.851684  DELTA    3.1799E+01
 TTTTTTTTTTTTTTTTTTTTTTTTTTTTTT MOQGAD      TELAPSE      140.68 TCPU      136.64
 TTTTTTTTTTTTTTTTTTTTTTTTTTTTTT CP_MONMON   TELAPSE      140.81 TCPU      136.77
 DIIS TEST: 0.28380E+00 AT CPHF  CYCLE   1 - MIX   60 %
 CYCLE   1   ALPHA   34.850135  EPSILON    1.933415  DELTA    3.0515E+00
 TTTTTTTTTTTTTTTTTTTTTTTTTTTTTT MOQGAD      TELAPSE      142.70 TCPU      138.65
 TTTTTTTTTTTTTTTTTTTTTTTTTTTTTT CP_MONMON   TELAPSE      142.83 TCPU      138.78
 DIIS TEST: 0.14872E+00 AT CPHF  CYCLE   2 - DIIS ACTIVE - HISTORY:     2 CYCLES
 CYCLE   2   ALPHA   35.399955  EPSILON    1.948141  DELTA    5.4982E-01
 TTTTTTTTTTTTTTTTTTTTTTTTTTTTTT MOQGAD      TELAPSE      144.72 TCPU      140.65
 TTTTTTTTTTTTTTTTTTTTTTTTTTTTTT CP_MONMON   TELAPSE      144.88 TCPU      140.81
 DIIS TEST: 0.52782E-01 AT CPHF  CYCLE   3 - DIIS ACTIVE - HISTORY:     3 CYCLES
 CYCLE   3   ALPHA   35.650873  EPSILON    1.954861  DELTA    2.5092E-01
 TTTTTTTTTTTTTTTTTTTTTTTTTTTTTT MOQGAD      TELAPSE      146.77 TCPU      142.69
 TTTTTTTTTTTTTTTTTTTTTTTTTTTTTT CP_MONMON   TELAPSE      146.93 TCPU      142.85
 DIIS TEST: 0.42314E-03 AT CPHF  CYCLE   4 - DIIS ACTIVE - HISTORY:     4 CYCLES
 CYCLE   4   ALPHA   35.715508  EPSILON    1.956592  DELTA    6.4635E-02
 TTTTTTTTTTTTTTTTTTTTTTTTTTTTTT MOQGAD      TELAPSE      148.83 TCPU      144.73
 TTTTTTTTTTTTTTTTTTTTTTTTTTTTTT CP_MONMON   TELAPSE      148.96 TCPU      144.86
 DIIS TEST: 0.14050E-05 AT CPHF  CYCLE   5 - DIIS ACTIVE - HISTORY:     5 CYCLES
 CYCLE   5   ALPHA   35.717253  EPSILON    1.956639  DELTA    1.7451E-03
 TTTTTTTTTTTTTTTTTTTTTTTTTTTTTT MOQGAD      TELAPSE      150.87 TCPU      146.76
 TTTTTTTTTTTTTTTTTTTTTTTTTTTTTT CP_MONMON   TELAPSE      151.00 TCPU      146.89
 DIIS TEST: 0.18034E-07 AT CPHF  CYCLE   6 - DIIS ACTIVE - HISTORY:     6 CYCLES
 CYCLE   6   ALPHA   35.717261  EPSILON    1.956639  DELTA    7.5784E-06
 TTTTTTTTTTTTTTTTTTTTTTTTTTTTTT CP_SC       TELAPSE      152.89 TCPU      148.71

 *******************************************************************************

 ELECTRIC FIELD APPLIED ALONG CARTESIAN DIRECTION Y

 *******************************************************************************
 THE NUMBER OF SYMMETRY OPERATORS HAS BEEN REDUCED FROM 16 TO  1

 NEW GRID IN RECIPROCAL SPACE
 *******************************************************************************
 POINTS IN THE IBZ                 260 SHRINKING FACTORS               8  8  8
 *******************************************************************************
 *** K POINTS COORDINATES (OBLIQUE COORDINATES IN UNITS OF SHRINK FAC. )
   1-R(  0  0  0)   2-C(  1  0  0)   3-C(  0  7  0)   4-C(  2  0  0)
   5-C(  0  6  0)   6-C(  3  0  0)   7-C(  0  5  0)   8-R(  4  0  0)
   9-R(  0  4  0)  10-C(  1  1  0)  11-C(  1  7  0)  12-C(  2  1  0)
  13-C(  2  7  0)  14-C(  7  6  0)  15-C(  1  6  0)  16-C(  3  1  0)
  17-C(  3  7  0)  18-C(  7  5  0)  19-C(  1  5  0)  20-C(  4  1  0)
  21-C(  7  4  0)  22-C(  2  2  0)  23-C(  2  6  0)  24-C(  3  2  0)
  25-C(  3  6  0)  26-C(  6  5  0)  27-C(  2  5  0)  28-C(  4  2  0)
  29-C(  6  4  0)  30-C(  3  3  0)  31-C(  3  5  0)  32-C(  4  3  0)
  33-C(  5  4  0)  34-R(  4  4  0)  35-C(  0  0  1)  36-C(  1  0  1)
  37-C(  7  0  1)  38-C(  0  7  7)  39-C(  0  1  7)  40-C(  2  0  1)
  41-C(  6  0  1)  42-C(  0  6  7)  43-C(  0  2  7)  44-C(  3  0  1)
  45-C(  5  0  1)  46-C(  0  5  7)  47-C(  0  3  7)  48-C(  4  0  1)
  49-C(  0  4  7)  50-C(  1  1  1)  51-C(  7  7  1)  52-C(  1  7  7)
  53-C(  7  1  7)  54-C(  2  1  1)  55-C(  6  7  1)  56-C(  2  7  7)
  57-C(  6  1  7)  58-C(  7  6  7)  59-C(  1  2  7)  60-C(  1  6  1)
  61-C(  7  2  1)  62-C(  3  1  1)  63-C(  5  7  1)  64-C(  3  7  7)
  65-C(  5  1  7)  66-C(  7  5  7)  67-C(  1  3  7)  68-C(  1  5  1)
  69-C(  7  3  1)  70-C(  4  1  1)  71-C(  4  7  1)  72-C(  7  4  7)
  73-C(  1  4  7)  74-C(  2  2  1)  75-C(  6  6  1)  76-C(  2  6  7)
  77-C(  6  2  7)  78-C(  3  2  1)  79-C(  5  6  1)  80-C(  3  6  7)
  81-C(  5  2  7)  82-C(  6  5  7)  83-C(  2  3  7)  84-C(  2  5  1)
  85-C(  6  3  1)  86-C(  4  2  1)  87-C(  4  6  1)  88-C(  6  4  7)
  89-C(  2  4  7)  90-C(  3  3  1)  91-C(  5  5  1)  92-C(  3  5  7)
  93-C(  5  3  7)  94-C(  4  3  1)  95-C(  4  5  1)  96-C(  5  4  7)
  97-C(  3  4  7)  98-C(  4  4  1)  99-C(  0  0  2) 100-C(  1  0  2)
 101-C(  7  0  2) 102-C(  0  7  6) 103-C(  0  1  6) 104-C(  2  0  2)
 105-C(  6  0  2) 106-C(  0  6  6) 107-C(  0  2  6) 108-C(  3  0  2)
 109-C(  5  0  2) 110-C(  0  5  6) 111-C(  0  3  6) 112-C(  4  0  2)
 113-C(  0  4  6) 114-C(  1  1  2) 115-C(  7  7  2) 116-C(  1  7  6)
 117-C(  7  1  6) 118-C(  2  1  2) 119-C(  6  7  2) 120-C(  2  7  6)
 121-C(  6  1  6) 122-C(  7  6  6) 123-C(  1  2  6) 124-C(  1  6  2)
 125-C(  7  2  2) 126-C(  3  1  2) 127-C(  5  7  2) 128-C(  3  7  6)
 129-C(  5  1  6) 130-C(  7  5  6) 131-C(  1  3  6) 132-C(  1  5  2)
 133-C(  7  3  2) 134-C(  4  1  2) 135-C(  4  7  2) 136-C(  7  4  6)
 137-C(  1  4  6) 138-C(  2  2  2) 139-C(  6  6  2) 140-C(  2  6  6)
 141-C(  6  2  6) 142-C(  3  2  2) 143-C(  5  6  2) 144-C(  3  6  6)
 145-C(  5  2  6) 146-C(  6  5  6) 147-C(  2  3  6) 148-C(  2  5  2)
 149-C(  6  3  2) 150-C(  4  2  2) 151-C(  4  6  2) 152-C(  6  4  6)
 153-C(  2  4  6) 154-C(  3  3  2) 155-C(  5  5  2) 156-C(  3  5  6)
 157-C(  5  3  6) 158-C(  4  3  2) 159-C(  4  5  2) 160-C(  5  4  6)
 161-C(  3  4  6) 162-C(  4  4  2) 163-C(  0  0  3) 164-C(  1  0  3)
 165-C(  7  0  3) 166-C(  0  7  5) 167-C(  0  1  5) 168-C(  2  0  3)
 169-C(  6  0  3) 170-C(  0  6  5) 171-C(  0  2  5) 172-C(  3  0  3)
 173-C(  5  0  3) 174-C(  0  5  5) 175-C(  0  3  5) 176-C(  4  0  3)
 177-C(  0  4  5) 178-C(  1  1  3) 179-C(  7  7  3) 180-C(  1  7  5)
 181-C(  7  1  5) 182-C(  2  1  3) 183-C(  6  7  3) 184-C(  2  7  5)
 185-C(  6  1  5) 186-C(  7  6  5) 187-C(  1  2  5) 188-C(  1  6  3)
 189-C(  7  2  3) 190-C(  3  1  3) 191-C(  5  7  3) 192-C(  3  7  5)
 193-C(  5  1  5) 194-C(  7  5  5) 195-C(  1  3  5) 196-C(  1  5  3)
 197-C(  7  3  3) 198-C(  4  1  3) 199-C(  4  7  3) 200-C(  7  4  5)
 201-C(  1  4  5) 202-C(  2  2  3) 203-C(  6  6  3) 204-C(  2  6  5)
 205-C(  6  2  5) 206-C(  3  2  3) 207-C(  5  6  3) 208-C(  3  6  5)
 209-C(  5  2  5) 210-C(  6  5  5) 211-C(  2  3  5) 212-C(  2  5  3)
 213-C(  6  3  3) 214-C(  4  2  3) 215-C(  4  6  3) 216-C(  6  4  5)
 217-C(  2  4  5) 218-C(  3  3  3) 219-C(  5  5  3) 220-C(  3  5  5)
 221-C(  5  3  5) 222-C(  4  3  3) 223-C(  4  5  3) 224-C(  5  4  5)
 225-C(  3  4  5) 226-C(  4  4  3) 227-R(  0  0  4) 228-C(  1  0  4)
 229-C(  0  7  4) 230-C(  2  0  4) 231-C(  0  6  4) 232-C(  3  0  4)
 233-C(  0  5  4) 234-R(  4  0  4) 235-R(  0  4  4) 236-C(  1  1  4)
 237-C(  1  7  4) 238-C(  2  1  4) 239-C(  2  7  4) 240-C(  7  6  4)
 241-C(  1  6  4) 242-C(  3  1  4) 243-C(  3  7  4) 244-C(  7  5  4)
 245-C(  1  5  4) 246-C(  4  1  4) 247-C(  7  4  4) 248-C(  2  2  4)
 249-C(  2  6  4) 250-C(  3  2  4) 251-C(  3  6  4) 252-C(  6  5  4)
 253-C(  2  5  4) 254-C(  4  2  4) 255-C(  6  4  4) 256-C(  3  3  4)
 257-C(  3  5  4) 258-C(  4  3  4) 259-C(  5  4  4) 260-R(  4  4  4)

 GCALCO - MAX INDICES DIRECT LATTICE VECTOR    12    12    19
 NO.OF VECTORS CREATED 6999 STARS  530 RMAX    92.08369 BOHR
 TTTTTTTTTTTTTTTTTTTTTTTTTTTTTT gordsh1     TELAPSE      153.08 TCPU      148.90

 MATRIX SIZE: P(G)  684884, F(G)   56080, P(G) IRR  350570, F(G) IRR   57110
 MAX G-VECTOR INDEX FOR 1- AND 2-ELECTRON INTEGRALS 499

 TTTTTTTTTTTTTTTTTTTTTTTTTTTTTT INPUT       TELAPSE      153.08 TCPU      148.90
 TTTTTTTTTTTTTTTTTTTTTTTTTTTTTT SYMM        TELAPSE      153.08 TCPU      148.90

 ***** NEW REFERENCE GEOMETRY *****
 TTTTTTTTTTTTTTTTTTTTTTTTTTTTTT INT_SCREEN  TELAPSE      153.09 TCPU      148.91

 DFT PARAMETERS

     ATOM       ELECTRONS   NET CHARGE   R(ANGSTROM)
   1  30  ZN     30.0000      0.0000     1.37000000
   3   9  F       9.0000      0.0000     0.72000000

 SIZE OF GRID=     310944
 TTTTTTTTTTTTTTTTTTTTTTTTTTTTTT MAKE_GRID2  TELAPSE      155.42 TCPU      151.22
 BECKE WEIGHT FUNCTION
 RADSAFE =     2.00
 TOLERANCES - DENSITY:10**- 6; POTENTIAL:10**- 9; GRID WGT:10**-14

 RADIAL INTEGRATION  - INTERVALS (POINTS,UPPER LIMIT):            1( 99,  4.0*R)

 ANGULAR INTEGRATION - INTERVALS (ACCURACY LEVEL [N. POINTS] UPPER LIMIT):
  1(  6[ 146]   0.2)  2( 11[ 302]   0.5)  3( 14[ 590]   0.9)  4( 18[1454]   3.5)
  5( 14[ 590]9999.0)
 CYCLE   0   ALPHA   31.798647  EPSILON    1.851685  DELTA    3.1799E+01
 TTTTTTTTTTTTTTTTTTTTTTTTTTTTTT MOQGAD      TELAPSE      157.44 TCPU      153.24
 TTTTTTTTTTTTTTTTTTTTTTTTTTTTTT CP_MONMON   TELAPSE      157.58 TCPU      153.37
 DIIS TEST: 0.28380E+00 AT CPHF  CYCLE   1 - MIX   60 %
 CYCLE   1   ALPHA   34.850138  EPSILON    1.933415  DELTA    3.0515E+00
 TTTTTTTTTTTTTTTTTTTTTTTTTTTTTT MOQGAD      TELAPSE      159.46 TCPU      155.24
 TTTTTTTTTTTTTTTTTTTTTTTTTTTTTT CP_MONMON   TELAPSE      159.63 TCPU      155.41
 DIIS TEST: 0.14872E+00 AT CPHF  CYCLE   2 - DIIS ACTIVE - HISTORY:     2 CYCLES
 CYCLE   2   ALPHA   35.399958  EPSILON    1.948141  DELTA    5.4982E-01
[...]
    1      8      2
    3      4      2

 ATOM  : IRREDUCIBLE ATOM
 SYMOP : NUMBER OF SYMMETRY OPERATORS THAT DOESN'T MOVE THE IRREDUCIBLE ATOM
 ORDER : MAXIMUM ORDER AMONG THE OPERATORS OF THE IRREDUCIBLE ATOM

 *******************************************************************************

 TTTTTTTTTTTTTTTTTTTTTTTTTTTTTT gordsh1     TELAPSE      893.87 TCPU      878.81

 MATRIX SIZE: P(G)  684884, F(G)   56080, P(G) IRR   34559, F(G) IRR    7581
 MAX G-VECTOR INDEX FOR 1- AND 2-ELECTRON INTEGRALS 499

 TTTTTTTTTTTTTTTTTTTTTTTTTTTTTT INPUT       TELAPSE      893.88 TCPU      878.81

 SYMMETRY ALLOWED INTERNAL DEGREE(S) OF FREEDOM:   1
 TTTTTTTTTTTTTTTTTTTTTTTTTTTTTT SYMM        TELAPSE      893.89 TCPU      878.82
 TTTTTTTTTTTTTTTTTTTTTTTTTTTTTT INT_SCREEN  TELAPSE      893.89 TCPU      878.83

 HHHHHHHHHHHHHHHHHHHHHHHHHHHHHHHHHHHHHHHHHHHHHHHHHHHHHHHHHHHHHHHHHHHHHHHHHHHHHHH
                   FORCE CONSTANT MATRIX - NUMERICAL ESTIMATE
 HHHHHHHHHHHHHHHHHHHHHHHHHHHHHHHHHHHHHHHHHHHHHHHHHHHHHHHHHHHHHHHHHHHHHHHHHHHHHHH
 MAX ABS(DGRAD): MAXIMUM ABSOLUTE GRADIENT DIFFERENCE WITH RESPECT TO
                 THE CENTRAL POINT
 DE:             ENERGY DIFFERENCE WITH RESPECT TO THE CENTRAL POINT
                 (DE IS EXPECTED TO BE POSITIVE FOR ALL DISPLACEMENTS)

   ATOM      MAX ABS(DGRAD)       TOTAL ENERGY (AU)  N.CYC      DE       SYM
    CENTRAL POINT             -3.957671152813E+03     0     0.0000E+00    16
    1 ZN DX   6.6848E-04      -3.957671151121E+03     9     1.6920E-06     2
    1 ZN DY                   GENERATED FROM A PREVIOUS LINE
    1 ZN DZ   5.2790E-04      -3.957671151346E+03     7     1.4672E-06     4
    3 F  DX   4.2727E-04      -3.957671151436E+03    12     1.3775E-06     2
    3 F  DY                   GENERATED FROM A PREVIOUS LINE
    3 F  DZ   3.3312E-04      -3.957671151903E+03     9     9.0976E-07     2

 GCALCO - MAX INDICES DIRECT LATTICE VECTOR    12    12    19
 NO.OF VECTORS CREATED 6999 STARS  530 RMAX    92.08369 BOHR

 CAPPA:IS1  8;IS2  8;IS3  8; K PTS MONK NET  75; SYMMOPS:K SPACE  16;G SPACE  16

 TTTTTTTTTTTTTTTTTTTTTTTTTTTTTT gordsh1     TELAPSE     1089.88 TCPU     1073.32

 MATRIX SIZE: P(G)  684884, F(G)   56080, P(G) IRR   34559, F(G) IRR    7581
 MAX G-VECTOR INDEX FOR 1- AND 2-ELECTRON INTEGRALS 499

 TTTTTTTTTTTTTTTTTTTTTTTTTTTTTT INPUT       TELAPSE     1089.88 TCPU     1073.32

 SYMMETRY ALLOWED INTERNAL DEGREE(S) OF FREEDOM:   1
 TTTTTTTTTTTTTTTTTTTTTTTTTTTTTT SYMM        TELAPSE     1089.95 TCPU     1073.39
 TTTTTTTTTTTTTTTTTTTTTTTTTTTTTT INT_SCREEN  TELAPSE     1089.96 TCPU     1073.39

 ATOMIC BORN CHARGE TENSOR (UNITS OF e, ELECTRON CHARGE).
 DYNAMIC CHARGE = 1/3 * TRACE .

 ATOM   1 ZN DYNAMIC CHARGE     2.301986

              1           2           3
   1     2.2463E+00 -1.5030E-01  0.0000E+00
   2    -1.5030E-01  2.2463E+00  4.1359E-25
   3     0.0000E+00  8.9737E-25  2.4134E+00

 ATOM   2 ZN DYNAMIC CHARGE     2.301986

              1           2           3
   1     2.2463E+00  1.5030E-01  0.0000E+00
   2     1.5030E-01  2.2463E+00  0.0000E+00
   3     0.0000E+00 -7.5699E-25  2.4134E+00

 ATOM   3 F  DYNAMIC CHARGE    -1.150992

              1           2           3
   1    -1.1231E+00  3.3751E-01  2.4815E-24
   2     3.3751E-01 -1.1231E+00  0.0000E+00
   3    -6.6174E-24  4.0406E-24 -1.2067E+00

 ATOM   4 F  DYNAMIC CHARGE    -1.150992

              1           2           3
   1    -1.1231E+00  3.3751E-01 -2.4815E-24
   2     3.3751E-01 -1.1231E+00  0.0000E+00
   3     6.6174E-24 -4.0406E-24 -1.2067E+00

 ATOM   5 F  DYNAMIC CHARGE    -1.150992

              1           2           3
   1    -1.1231E+00 -3.3751E-01 -2.4815E-24
   2    -3.3751E-01 -1.1231E+00  0.0000E+00
   3     6.6174E-24  4.0406E-24 -1.2067E+00

 ATOM   6 F  DYNAMIC CHARGE    -1.150992

              1           2           3
   1    -1.1231E+00 -3.3751E-01  2.4815E-24
   2    -3.3751E-01 -1.1231E+00  0.0000E+00
   3    -6.6174E-24 -4.0406E-24 -1.2067E+00

 +++ SYMMETRY ADAPTION OF VIBRATIONAL MODES +++

 SYMMETRY INFORMATION:
 K-LITTLE GROUP: CLASS TABLE, CHARACTER TABLE.
 IRREP-(DIMENSION, NO. IRREDUCIBLE SETS)
 [WARNINGS: (1) ONLY ACTIVE IRREPS ARE GENERATED AND LISTED.
            (2) ONLY RELEVANT CLASSES ARE CONSIDERED IN THE CHARACTER TABLE
            (3) SYMBOLS MAY NOT FULLY COINCIDE WITH THOSE FROM TEXT BOOKS.]

 (P, D, RP, RD, STAND FOR PAIRING, DOUBLING, REAL PAIRING AND REAL DOUBLING 
 OF THE IRREPS (SEE MANUAL))

 CLASS  | GROUP OPERATORS (SEE SYMMOPS KEYWORD)
 --------------------------------------------------------------------
 C2     |   2;
 C2'    |   3;   4;
 C2''   |   5;   6;
 C4     |   7;   8;
 I      |   9;
 SGH    |  10;
 SGV    |  11;  12;
 SGV'   |  13;  14;
 S4     |  15;  16;

 IRREP/CLA      E     C2    C2'   C2''     C4      I    SGH    SGV   SGV'     S4
 -------------------------------------------------------------------------------
  MULTIP |      1      1      2      2      2      1      1      2      2      2
 -------------------------------------------------------------------------------
    A1g  |   1.00   1.00   1.00   1.00   1.00   1.00   1.00   1.00   1.00   1.00
    A2g  |   1.00   1.00  -1.00  -1.00   1.00   1.00   1.00  -1.00  -1.00   1.00
    B1g  |   1.00   1.00   1.00  -1.00  -1.00   1.00   1.00   1.00  -1.00  -1.00
    B2g  |   1.00   1.00  -1.00   1.00  -1.00   1.00   1.00  -1.00   1.00  -1.00
    Eg   |   2.00  -2.00   0.00   0.00   0.00   2.00  -2.00   0.00   0.00   0.00
    A2u  |   1.00   1.00  -1.00  -1.00   1.00  -1.00  -1.00   1.00   1.00  -1.00
    B1u  |   1.00   1.00   1.00  -1.00  -1.00  -1.00  -1.00  -1.00   1.00   1.00
    Eu   |   2.00  -2.00   0.00   0.00   0.00  -2.00   2.00   0.00   0.00   0.00

 A1g-(1,   1); A2g-(1,   1); B1g-(1,   1); B2g-(1,   1); Eg -(2,   1);
 A2u-(1,   2); B1u-(1,   2); Eu -(2,   4);

 BORN CHARGE VECTOR IN THE BASIS OF NORMAL MODES (UNITS OF e*M_E**(-1/2) ).
 e AND M_E ARE UNITS OF ELECTRON CHARGE AND MASS, RESPECTIVELY.

 MODE         X              Y              Z
   1   -0.16286E-08    0.19470E-19    0.94569E-42
   2    0.17631E-19    0.16286E-08    0.23029E-27
   3    0.00000E+00   -0.67847E-27   -0.21317E-07
   4   -0.74465E-20    0.12155E-18    0.14517E-42
   5   -0.26887E-42   -0.77221E-27   -0.25008E-18
   6   -0.33062E-20    0.96606E-02    0.13889E-27
   7   -0.96606E-02    0.53428E-18   -0.69518E-27
   8    0.29134E-02    0.13484E-17   -0.33546E-26
   9   -0.33346E-18   -0.29134E-02   -0.31217E-28
  10    0.74465E-20   -0.12155E-18   -0.19583E-25
  11   -0.18858E-25    0.00000E+00    0.12441E-18
  12   -0.18858E-25    0.00000E+00   -0.12441E-18
  13    0.80661E-42   -0.52307E-27   -0.16375E-01
  14    0.74465E-20   -0.12155E-18    0.20058E-41
  15    0.00000E+00    0.37096E-27   -0.11184E-18
  16   -0.29287E-18    0.12001E-01    0.10609E-27
  17   -0.12001E-01   -0.21020E-18   -0.76991E-28
  18    0.74465E-20    0.20349E-18    0.80994E-25

 HHHHHHHHHHHHHHHHHHHHHHHHHHHHHHHHHHHHHHHHHHHHHHHHHHHHHHHHHHHHHHHHHHHHHHHHHHHHHH
 VIBRATIONAL CONTRIBUTIONS TO THE STATIC DIELECTRIC TENSOR (OSCILLATOR
 STRENGTHS) ARE PURE NUMBERS. THEY ARE COMPUTED FOR EACH nth MODE AS:

   f_(n,ij) = 1 / (4 * pi * eps0) * 4 * pi / V * Z_(n,i) * Z_(n,j) / nu_n**2

 WHERE:
  1/(4*pi*eps0)  1 A.U. [M*L**3*T**(-4)*C**(-2)]
  V              CELL VOLUME (BOHR**3) [L**3]
  Z_(n,i)        ith COMPONENT OF BORN CHARGE VECTOR IN THE BASIS
                 OF NORMAL MODES ( e*M_E**(-1/2) ) [C*T*M**(-1/2)]
  nu_n           FREQUENCY (HARTREE) [T**(-1)]
  e, M_E         UNITS OF ELECTRON CHARGE AND MASS, RESPECTIVELY
  M, L, T, C     MASS, LENGTH, TIME, CURRENT, RESPECTIVELY

 HHHHHHHHHHHHHHHHHHHHHHHHHHHHHHHHHHHHHHHHHHHHHHHHHHHHHHHHHHHHHHHHHHHHHHHHHHHHHH

 MODE      CARTESIAN AXES SYSTEM

   6       0.00000   -0.00000   -0.00000
          -0.00000    3.69906    0.00000
          -0.00000    0.00000    0.00000

   7       3.69906   -0.00000    0.00000
          -0.00000    0.00000   -0.00000
           0.00000   -0.00000    0.00000

   8       0.15969    0.00000   -0.00000
           0.00000    0.00000   -0.00000
          -0.00000   -0.00000    0.00000

   9       0.00000    0.00000    0.00000
           0.00000    0.15969    0.00000
           0.00000    0.00000    0.00000

  13       0.00000   -0.00000   -0.00000
          -0.00000    0.00000    0.00000
          -0.00000    0.00000    3.37602

  16       0.00000   -0.00000   -0.00000
          -0.00000    1.11378    0.00000
          -0.00000    0.00000    0.00000

  17       1.11378    0.00000    0.00000
           0.00000    0.00000    0.00000
           0.00000    0.00000    0.00000

 SUM TENSOR OF THE VIBRATIONAL CONTRIBUTIONS TO THE STATIC DIELECTRIC     TENSOR

           4.97254   -0.00000    0.00000
          -0.00000    4.97254    0.00000
           0.00000    0.00000    3.37602

 INTEGRATED IR INTENSITIES, IN UNITS OF KM/MOL, ARE COMPUTED UNDER THE
 HYPOTHESIS OF ISOTROPIC RESPONSE (I.E. POWDER SAMPLE):

   INTENS_n = 1 / (4 * pi * eps0) * pi * N_AV / 3 / c**2 *
                             * d_n * ( Z_(n,x)**2 + Z_(n,y)**2 + Z_(n,z)**2 )
            = 0.17770712E+07 * d_n * ( Z_(n,x)**2 + Z_(n,y)**2 + Z_(n,z)**2 )

 WHERE:
  1/(4*pi*eps0)  1 A.U. [M*L**3*T**(-4)*C**(-2)]
  N_AV           AVOGADRO'S NUMBER [QM**(-1)]
  c              SPEED OF LIGHT [L*T**(-1)]
  d_n            DEGENERACY OF THE MODE
  Z_(n,x)        xth COMPONENT OF BORN CHARGE VECTOR IN THE BASIS
                 OF NORMAL MODES ( e*M_E**(-1/2) ) [C*T*M**(-1/2)]
  M,L,T,C,QM     MASS, LENGTH, TIME, CURRENT, QUANTITY OF MATTER, RESPECTIVELY

 HHHHHHHHHHHHHHHHHHHHHHHHHHHHHHHHHHHHHHHHHHHHHHHHHHHHHHHHHHHHHHHHHHHHHHHHHHHHHH
 EIGENVALUES (EIGV) OF THE MASS WEIGHTED HESSIAN MATRIX AND HARMONIC TRANSVERSE
 OPTICAL (TO) FREQUENCIES. IRREP LABELS REFER TO SYMMETRY REPRESENTATION
 ANALYSIS; A AND I INDICATE WHETHER THE MODE IS ACTIVE OR INACTIVE,
 RESPECTIVELY, FOR IR AND RAMAN; INTEGRATED IR INTENSITIES IN BRACKETS.

 CONVERSION FACTORS FOR FREQUENCIES:
      1 CM**(-1) =   0.4556335E-05 HARTREE
      1 THZ      =   0.3335641E+02 CM**(-1)

 HHHHHHHHHHHHHHHHHHHHHHHHHHHHHHHHHHHHHHHHHHHHHHHHHHHHHHHHHHHHHHHHHHHHHHHHHHHHHH

    MODES         EIGV          FREQUENCIES     IRREP  IR   INTENS    RAMAN
             (HARTREE**2)   (CM**-1)     (THZ)             (KM/MOL)
    1-   2    0.9871E-22      0.0000    0.0000  (Eu )   A (     0.00)   I
    3-   3    0.1748E-21      0.0000    0.0000  (A2u)   A (     0.00)   I
    4-   4    0.1145E-06     74.2804    2.2269  (B1g)   I (     0.00)   A
    5-   5    0.3138E-06    122.9377    3.6856  (B1u)   I (     0.00)   I
    6-   7    0.6758E-06    180.4175    5.4088  (Eu )   A (   331.70)   I
    8-   9    0.1424E-05    261.8658    7.8505  (Eu )   A (    30.17)   I
   10-  10    0.1476E-05    266.6152    7.9929  (A2g)   I (     0.00)   I
   11-  12    0.1505E-05    269.2681    8.0725  (Eg )   I (     0.00)   A
   13-  13    0.2127E-05    320.1070    9.5966  (A2u)   A (   476.50)   I
   14-  14    0.2877E-05    372.2564   11.1600  (A1g)   I (     0.00)   A
   15-  15    0.2933E-05    375.9038   11.2693  (B1u)   I (     0.00)   I
   16-  17    0.3463E-05    408.4481   12.2450  (Eu )   A (   511.88)   I
   18-  18    0.5865E-05    531.4994   15.9340  (B2g)   I (     0.00)   A

 <RAMAN><RAMAN><RAMAN><RAMAN><RAMAN><RAMAN><RAMAN><RAMAN><RAMAN><RAMAN><RAMAN>
 <RAMAN><RAMAN><RAMAN><RAMAN><RAMAN><RAMAN><RAMAN><RAMAN><RAMAN><RAMAN><RAMAN>

 RAMAN INTENSITIES UNDER PLACZECK APPROXIMATION ARE COMPUTED AS:

  DIRECTIONAL (SINGLE CRYSTAL) :

     I_ij(n)= VOLUME*X(n,i,j)**2

  ISOTROPIC (POLYCRYSTALLINE POWDERS, GASES) :

     G_0(n) = 1/3*(SUM_i X(n,i,i))**2
     G_1(n) = 1/2*SUM_i,j (X(n,i,j)+X(n,j,i))**2
     G_2(n) = 1/3*SUM_i,j (X(n,i,i)-X(n,j,j))**2

     I_par(n)  = VOLUME*( 15*G_0(n) + 6*(G_1(n) + G_2(n)) )
     I_perp(n) = VOLUME*9/2*( G_1(n) + G_2(n) )
     I_tot(n)  = I_par(n) + I_perp(n)

  WHERE X(n,i,j) IS THE i,j-th COMPONENT OF THE RAMAN TENSOR
  IN THE BASIS OF NORMAL MODE n

  ALL VALUES ARE NORMALIZED TO THE MOST INTENSE PEAK


  INTENSITIES HAVE BEEN CALCULATED AT 
  TEMPERATURE                  :    298.0 K
  FREQUENCY OF INCOMING LASER  :    514.0 NM


 REFERENCES TO BE QUOTED FOR RAMAN INTENSITIES:

 L.MASCHIO, B.KIRTMAN, M.RERAT, R.ORLANDO and R.DOVESI, JCP 139, 164101 (2013)
 L.MASCHIO, B.KIRTMAN, M.RERAT, R.ORLANDO and R.DOVESI, JCP 139, 164102 (2013)

  --
  POLYCRYSTALLINE ISOTROPIC INTENSITIES (ARBITRARY UNITS)

    MODES    FREQUENCIES           I_tot     I_par    I_perp
  ----------------------------------------------------------------
    4-   4       74.2804 (B1g)     68.36     39.06     29.30
   11-  12      269.2681 (Eg )   1000.00    571.43    428.57
   14-  14      372.2564 (A1g)    839.34    576.84    262.49
   18-  18      531.4994 (B2g)     37.64     21.51     16.13

  --
  SINGLE CRYSTAL DIRECTIONAL INTENSITIES (ARBITRARY UNITS)

    MODES    FREQUENCIES          I_xx    I_xy    I_xz    I_yy    I_yz    I_zz
  ----------------------------------------------------------------------------
    4-   4       74.2804 (B1g)  113.17    0.00    0.00  113.17    0.00    0.00
   11-  12      269.2681 (Eg )    0.00    0.00  827.74    0.00  827.74    0.00
   14-  14      372.2564 (A1g) 1000.00    0.00    0.00 1000.00    0.00  553.66
   18-  18      531.4994 (B2g)    0.00   62.32    0.00    0.00    0.00    0.00

 <RAMAN><RAMAN><RAMAN><RAMAN><RAMAN><RAMAN><RAMAN><RAMAN><RAMAN><RAMAN><RAMAN>
 <RAMAN><RAMAN><RAMAN><RAMAN><RAMAN><RAMAN><RAMAN><RAMAN><RAMAN><RAMAN><RAMAN>


 NORMAL MODES NORMALIZED TO CLASSICAL AMPLITUDES (IN BOHR)

 FREQ(CM**-1)      0.00      0.00      0.00     74.28    122.94    180.42

 AT.   1 ZN X    -0.0700    0.0000    0.0000    0.0000    0.0000    0.0147
            Y    -0.0000    0.0700    0.0000    0.0000    0.0000    0.0345
            Z     0.0000    0.0000   -0.0700    0.0000   -0.0789    0.0000
 AT.   2 ZN X    -0.0700   -0.0000    0.0000    0.0000    0.0000   -0.0147
            Y     0.0000    0.0700    0.0000    0.0000    0.0000    0.0345
            Z     0.0000    0.0000   -0.0700    0.0000    0.0789    0.0000
 AT.   3 F  X    -0.0700    0.0000    0.0000    0.1033    0.0000   -0.0552
            Y    -0.0000    0.0700    0.0000    0.1033    0.0000   -0.0581
            Z     0.0000    0.0000   -0.0700    0.0000    0.0492    0.0000
 AT.   4 F  X    -0.0700    0.0000    0.0000   -0.1033    0.0000   -0.0552
            Y    -0.0000    0.0700    0.0000   -0.1033    0.0000   -0.0581
            Z     0.0000    0.0000   -0.0700    0.0000    0.0492    0.0000
 AT.   5 F  X    -0.0700   -0.0000    0.0000    0.1033    0.0000    0.0552
            Y     0.0000    0.0700    0.0000   -0.1033    0.0000   -0.0581
            Z     0.0000    0.0000   -0.0700    0.0000   -0.0492    0.0000
 AT.   6 F  X    -0.0700   -0.0000    0.0000   -0.1033    0.0000    0.0552
            Y     0.0000    0.0700    0.0000    0.1033    0.0000   -0.0581
            Z     0.0000    0.0000   -0.0700    0.0000   -0.0492    0.0000

 FREQ(CM**-1)    180.42    261.87    261.87    266.62    269.27    269.27

 AT.   1 ZN X    -0.0345    0.0064    0.0587    0.0000    0.0000    0.0000
            Y    -0.0147   -0.0587   -0.0064    0.0000    0.0000    0.0000
            Z     0.0000    0.0000    0.0000    0.0000    0.0000    0.0000
 AT.   2 ZN X    -0.0345    0.0064   -0.0587    0.0000    0.0000    0.0000
            Y     0.0147    0.0587   -0.0064    0.0000    0.0000    0.0000
            Z     0.0000    0.0000    0.0000    0.0000    0.0000    0.0000
 AT.   3 F  X     0.0581   -0.0108    0.0081    0.0545    0.0000    0.0000
            Y     0.0552   -0.0081    0.0108    0.0545    0.0000    0.0000
            Z     0.0000    0.0000    0.0000    0.0000    0.0000   -0.1085
 AT.   4 F  X     0.0581   -0.0108    0.0081   -0.0545    0.0000    0.0000
            Y     0.0552   -0.0081    0.0108   -0.0545    0.0000    0.0000
            Z     0.0000    0.0000    0.0000    0.0000    0.0000    0.1085
 AT.   5 F  X     0.0581   -0.0108   -0.0081   -0.0545    0.0000    0.0000
            Y    -0.0552    0.0081    0.0108    0.0545    0.0000    0.0000
            Z     0.0000    0.0000    0.0000    0.0000    0.1085    0.0000
 AT.   6 F  X     0.0581   -0.0108   -0.0081    0.0545    0.0000    0.0000
            Y    -0.0552    0.0081    0.0108   -0.0545    0.0000    0.0000
            Z     0.0000    0.0000    0.0000    0.0000   -0.1085    0.0000

 FREQ(CM**-1)    320.11    372.26    375.90    408.45    408.45    531.50

 AT.   1 ZN X     0.0000    0.0000    0.0000    0.0011   -0.0175    0.0000
            Y     0.0000    0.0000    0.0000    0.0175   -0.0011    0.0000
            Z    -0.0331    0.0000    0.0217    0.0000    0.0000    0.0000
 AT.   2 ZN X     0.0000    0.0000    0.0000   -0.0011   -0.0175    0.0000
            Y     0.0000    0.0000    0.0000    0.0175    0.0011    0.0000
            Z    -0.0331    0.0000   -0.0217    0.0000    0.0000    0.0000
 AT.   3 F  X     0.0000    0.0461    0.0000    0.0499    0.0295   -0.0386
            Y     0.0000   -0.0461    0.0000   -0.0295   -0.0499    0.0386
            Z     0.0557    0.0000    0.0585    0.0000    0.0000    0.0000
 AT.   4 F  X     0.0000   -0.0461    0.0000    0.0499    0.0295    0.0386
            Y     0.0000    0.0461    0.0000   -0.0295   -0.0499   -0.0386
            Z     0.0557    0.0000    0.0585    0.0000    0.0000    0.0000
 AT.   5 F  X     0.0000    0.0461    0.0000   -0.0499    0.0295    0.0386
            Y     0.0000    0.0461    0.0000   -0.0295    0.0499    0.0386
            Z     0.0557    0.0000   -0.0585    0.0000    0.0000    0.0000
 AT.   6 F  X     0.0000   -0.0461    0.0000   -0.0499    0.0295   -0.0386
            Y     0.0000   -0.0461    0.0000   -0.0295    0.0499   -0.0386
            Z     0.0557    0.0000   -0.0585    0.0000    0.0000    0.0000

 *******************************************************************************

 VIBRATIONAL TEMPERATURES (K) [MODE NUMBER;IRREP]

 TO MODES
   106.9 [   4;B1g]   176.9 [   5;B1u]   259.6 [   6;Eu ]   259.6 [   7;Eu ]
   376.8 [   8;Eu ]   376.8 [   9;Eu ]   383.6 [  10;A2g]   387.4 [  11;Eg ]
   387.4 [  12;Eg ]   460.6 [  13;A2u]   535.6 [  14;A1g]   540.8 [  15;B1u]
   587.7 [  16;Eu ]   587.7 [  17;Eu ]   764.7 [  18;B2g]

 *******************************************************************************

 HARMONIC VIBRATIONAL CONTRIBUTIONS TO THERMODYNAMIC FUNCTIONS AT GIVEN
 TEMPERATURE AND PRESSURE:

 (EL = ELECTRONIC ENERGY
  E0 = ZERO-POINT ENERGY
  ET = THERMAL CONTRIBUTION TO THE VIBRATIONAL ENERGY
  PV = PRESSURE * VOLUME
  TS = TEMPERATURE * ENTROPY)

                          AU/CELL             EV/CELL                 KJ/MOL
 EL            :   -3957.671152813074 -107693.707110316536   -10390864.14737240
 E0            :       0.009804320089       0.266789112907          25.74123877


 *******************************************************************************

 THERMODYNAMIC FUNCTIONS WITH VIBRATIONAL CONTRIBUTIONS

 AT (T =  298.15 K, P =   0.10132500E+00 MPA):

                          AU/CELL             EV/CELL                 KJ/MOL
 ET            :       0.006855287286       0.186541850651          17.99855423
 PV            :       0.000001615842       0.000043969283           0.00424239
 TS            :       0.012230226261       0.332801375862          32.11045452
 ET+PV-TS      :      -0.005373323134      -0.146215555927         -14.10765790
 EL+E0+ET+PV-TS:   -3957.666721816119 -107693.586536759554   -10390852.51379153

 OTHER THERMODYNAMIC FUNCTIONS:

                      mHARTREE/(CELL*K)     mEV/(CELL*K)              J/(MOL*K)
 ENTROPY       :       0.041020379880       1.116221284124         107.69899220
 HEAT CAPACITY :       0.039963272876       1.087455940146         104.92355815

 *******************************************************************************
 TTTTTTTTTTTTTTTTTTTTTTTTTTTTTT END         TELAPSE     1089.99 TCPU     1073.42
 EEEEEEEEEE TERMINATION  DATE 05 09 2023 TIME 17:10:56.8
