         256 PROCESSORS WORKING

         
 *******************************************************************************
 *                                                                             *
 *                               CRYSTAL23                                     *
 *                      public : 1.0.1 - October 2022                          *
 *                       HTTP://WWW.CRYSTAL.UNITO.IT                           *
 *                                                                             *
 *                              MAIN AUTHORS                                   *
 *                                                                             *
 *  R. DOVESI(1,11), V.R. SAUNDERS(2), C. ROETTI(1,11), R. ORLANDO(1,11),      *
 *  C.M. ZICOVICH-WILSON(1,3), F. PASCALE(4), B. CIVALLERI(1,11),              *
 *  K. DOLL(5), N.M. HARRISON(6), I.J. BUSH(7), Ph. D'ARCO(8),                 *
 *  M. LLUNELL(9), M. CAUSA'(10), Y. NOEL(8), L. MASCHIO(1,11), A. ERBA(1,11)  *
 *  M. RE'RAT(14), S. CASASSA(1,11), B.G. SEARLE(2), J.K. DESMARAIS(1)         *
 *                                                                             *
 *        CONTRIBUTIONS TO THE CODE HAVE ALSO BEEN GIVEN BY                    *
 *                                                                             *
 *  M. FERRABONE(1,11), M. DE LA PIERRE(1,11), M. FERRERO(1,11),               *
 *  J. BAIMA(1,11), E. ALBANESE(1,11), M.F. PEINTINGER(12), R. BAST(13),       *
 *  B. KIRTMAN(15), V. LACIVITA(1,11), R. DEMICHELIS(1,16)                     *
 *  G. BRANDEBURG(17), S. SALUSTRO(1,11), G. SANSONE(1,11)                     *
 *  M.T. RUGGIERO(18), L.E. DAGA(1), L. DONA'(1), A. COSSARD(1)                *
 *                                                                             *
 * (1) THEORETICAL CHEMISTRY GROUP - UNIVERSITA' DI TORINO - TORINO (ITALY)    *
 * (2) SCIENTIFIC COMPUTING DEPARTMENT - STFC DARESBURY (UK)                   *
 * (3) UNIVERSIDAD AUTONOMA DEL ESTADO DE MORELOS - CUERNAVACA (MEXICO)        *
 * (4) UNIVERSITE' DE LORRAINE - NANCY (FRANCE)                                *
 * (5) UNIVERSITAET STUTTGART- STUTTGART (GERMANY)                             *
 * (6) IMPERIAL COLLEGE - LONDON (UK)                                          *
 * (7) SCIENTIFIC COMPUTING DEPARTMENT - STFC RAL (UK)                         *
 * (8) UPMC - SORBONNE UNIVERSITES - PARIS (FRANCE)                            *
 * (9) UNIVERSIDAD DE BARCELONA - BARCELONA (SPAIN)                            *
 *(10) UNIVERSITA' DI NAPOLI "FEDERICO II" - NAPOLI (ITALY)                    *
 *(11) NIS - NANOSTRUCTURED INTERFACES AND SURFACES - TORINO (ITALY)           *
 *(12) MPI FUER CHEMISCHE ENERGIEKONVERSION - MUELHEIM AN DER RUHR (GERMANY)   *
 *(13) UNIVERSITY OF TROMSO - TROMSO (NORWAY)                                  *
 *(14) UNIVERSITE' DE PAU ET DES PAYS DE L'ADOUR - PAU (FRANCE)                *
 *(15) UNIVERSITY OF CALIFORNIA SANTA BARBARA - SANTA BARBARA (USA)            *
 *(16) CURTIN UNIVERSITY - PERTH (AUSTRALIA)                                   *
 *(17) UNIVERSITY COLLEGE LONDON - LONDON (UK)                                 *
 *(18) UNIVERSITY OF VERMONT - BURLINGTON (USA)                                *
 *                                                                             *
 *******************************************************************************
 EEEEEEEEEE STARTING  DATE 25 07 2023 TIME 17:17:01.3
 ICSD_CollCode121533.cif                                                         

 CRYSTAL CALCULATION
 (INPUT ACCORDING TO THE INTERNATIONAL TABLES FOR X-RAY CRYSTALLOGRAPHY)
 CRYSTAL FAMILY                       :  HEXAGONAL   
 CRYSTAL CLASS  (GROTH - 1921)        :  DITRIGONAL SCALENOHEDRAL             

 SPACE GROUP (CENTROSYMMETRIC)        :  R -3 M          

 LATTICE PARAMETERS  (ANGSTROMS AND DEGREES) - CONVENTIONAL CELL
        A           B           C        ALPHA        BETA       GAMMA
     6.65284     6.65284     6.65284    39.23956    39.23956    39.23956


 NUMBER OF IRREDUCIBLE ATOMS IN THE CONVENTIONAL CELL:    4

 INPUT COORDINATES

 ATOM AT. N.              COORDINATES
   1   3     5.000000000000E-01  5.000000000000E-01  5.000000000000E-01
   2   3     6.492880000000E-01  6.492880000000E-01  6.492880000000E-01
   3   3     8.082660000000E-01  8.082660000000E-01  8.082660000000E-01
   4  32     9.320500000000E-01  9.320500000000E-01  9.320500000000E-01

 *******************************************************************************

 << INFORMATION >>: FROM NOW ON, ALL COORDINATES REFER TO THE PRIMITIVE CELL

 *******************************************************************************

 LATTICE PARAMETERS  (ANGSTROMS AND DEGREES) - PRIMITIVE CELL
       A          B          C        ALPHA      BETA     GAMMA        VOLUME
    6.65284    6.65284    6.65284    39.23956  39.23956  39.23956    106.008149

 COORDINATES OF THE EQUIVALENT ATOMS (FRACTIONAL UNITS)

 N. ATOM EQUIV AT. N.          X                  Y                  Z

   1   1   1    3 LI   -5.00000000000E-01 -5.00000000000E-01 -5.00000000000E-01

   2   2   1    3 LI   -3.50712000000E-01 -3.50712000000E-01 -3.50712000000E-01
   3   2   2    3 LI    3.50712000000E-01  3.50712000000E-01  3.50712000000E-01

   4   3   1    3 LI   -1.91734000000E-01 -1.91734000000E-01 -1.91734000000E-01
   5   3   2    3 LI    1.91734000000E-01  1.91734000000E-01  1.91734000000E-01

   6   4   1   32 GE   -6.79500000000E-02 -6.79500000000E-02 -6.79500000000E-02
   7   4   2   32 GE    6.79500000000E-02  6.79500000000E-02  6.79500000000E-02

 NUMBER OF SYMMETRY OPERATORS         :   12
 *******************************************************************************
 * GEOMETRY EDITING - INPUT COORDINATES ARE GIVEN IN ANGSTROM         
 *******************************************************************************

 GEOMETRY NOW FULLY CONSISTENT WITH THE GROUP

 FRQFRQFRQFRQFRQFRQFRQFRQFRQFRQFRQFRQFRQFRQFRQFRQFRQFRQFRQFRQFRQFRQFRQFRQFRQFRQ

                       FREQUENCY CALCULATION

 OPTIMIZATION PERFORMED BEFORE FREQUENCIES CALCULATION
 *******************************************************************************
 INFORMATION **** NEW DEFAULT **** FINALRUN 4 FOR GEOMETRY OPTIMIZATIONS
 INFORMATION **** NEW DEFAULT **** OPTGEOM OPTIMIZES ATOMIC COORDINATES ONLY
 INFORMATION **** NEW DEFAULT **** TOL. ON ATOMIC DISP TO REDEFINE REF. GEOMETRY: 0.8 Angs
 INFORMATION **** NEW DEFAULT **** N POINTS TO REDEFINE REF. GEOMETRY: N OF OPT DEGS OF FREEDOM
 INFORMATION **** NEW DEFAULT **** TOL. ON ENERGY TO REDEFINE REF. GEOMETRY: 10**-3*(5*N. ATOMS)
 INFORMATION **** FULLOPTG **** FULL OPTIMIZATION (ATOMS AND CELL PARAMETERS)

 IMPORTANT INFORMATION:
 THE COORDINATE SYSTEM ADOPTED IN THE OPTIMIZATION IS NOT IN
 GENERAL HOMOGENEOUS UNITS. FOR THIS REASON THE GRADIENT AND 
 HESSIAN MATRIX IN TERMS OF THIS SYSTEM ARE GIVEN WITHOUT
 UNITS. FOR MORE DETAILS SEE THE MANUAL.

 *******************************************************************************
 COMBINED CELL/ATOM OPTIMIZATION CONTROL

 INITIAL TRUST RADIUS         0.50000 MAXIMUM TRUST RADIUS               0.50000
 MAXIMUM GRADIENT COMPONENT   0.00005 MAXIMUM DISPLACEMENT COMPONENT     0.00018
 R.M.S. OF GRADIENT COMPONENT 0.00003 R.M.S. OF DISPLACEMENT COMPONENTS  0.00012
 THRESHOLD ON ENERGY CHANGE 0.100E-06 EXTRAPOLATING POLYNOMIAL ORDER           2
 MAXIMUM ALLOWED NUMBER OF STEPS   -1 SORTING OF ENERGY POINTS:               NO
 ANALYTICAL  GRADIENT                 HESSIAN UPDATING                      BFGS
 STEP SIZE NUMERICAL GRADIENT 0.00100
 INITIAL HESSIAN MATRIX: SCHLEGEL MODEL 2
 *******************************************************************************

 INFORMATION **** INPFREQ **** IR INTENSITIES EVALUATED THROUGH CPHF APPROACH
 INFORMATION **** INPFREQ **** NEW DEFAULT - IMPOSING ECKART CONDITIONS TO THE HESSIAN

 GCALCO - MAX INDICES DIRECT LATTICE VECTOR    14    14    14
 NO.OF VECTORS CREATED 6999 STARS  514 RMAX   106.34290 BOHR

 GEOMETRY FOR WAVE FUNCTION - DIMENSIONALITY OF THE SYSTEM    3
 (NON PERIODIC DIRECTION: LATTICE PARAMETER FORMALLY SET TO 500)
 *******************************************************************************
 LATTICE PARAMETERS (ANGSTROMS AND DEGREES) - BOHR = 0.5291772083 ANGSTROM
 PRIMITIVE CELL - CENTRING CODE 7/0 VOLUME=   106.008149 - DENSITY  2.865 g/cm^3
         A              B              C           ALPHA      BETA       GAMMA 
     6.65284191     6.65284191     6.65284191    39.239564  39.239564  39.239564
 *******************************************************************************
 ATOMS IN THE ASYMMETRIC UNIT    4 - ATOMS IN THE UNIT CELL:    7
     ATOM                 X/A                 Y/B                 Z/C    
 *******************************************************************************
      1 T   3 LI   -5.000000000000E-01 -5.000000000000E-01 -5.000000000000E-01
      2 T   3 LI   -3.507120000000E-01 -3.507120000000E-01 -3.507120000000E-01
      3 F   3 LI    3.507120000000E-01  3.507120000000E-01  3.507120000000E-01
      4 T   3 LI   -1.917340000000E-01 -1.917340000000E-01 -1.917340000000E-01
      5 F   3 LI    1.917340000000E-01  1.917340000000E-01  1.917340000000E-01
      6 T  32 GE   -6.795000000000E-02 -6.795000000000E-02 -6.795000000000E-02
      7 F  32 GE    6.795000000000E-02  6.795000000000E-02  6.795000000000E-02

 TRANSFORMATION MATRIX PRIMITIVE-CRYSTALLOGRAPHIC CELL
  1.0000  0.0000  1.0000 -1.0000  1.0000  1.0000  0.0000 -1.0000  1.0000

 *******************************************************************************
 CRYSTALLOGRAPHIC CELL (VOLUME=        318.02444610)
         A              B              C           ALPHA      BETA       GAMMA 
     4.46774000     4.46774000    18.39730000    90.000000  90.000000 120.000000

 COORDINATES IN THE CRYSTALLOGRAPHIC CELL
     ATOM                 X/A                 Y/B                 Z/C    
 *******************************************************************************
      1 T   3 LI    0.000000000000E+00  0.000000000000E+00 -5.000000000000E-01
      2 T   3 LI   -3.333333333333E-01  3.333333333333E-01 -1.737866666667E-02
      3 F   3 LI    3.333333333333E-01 -3.333333333333E-01  1.737866666667E-02
      4 T   3 LI    2.978873015753E-18 -3.416082686383E-18 -1.917340000000E-01
      5 F   3 LI   -1.319130595915E-18  4.973810849556E-18  1.917340000000E-01
      6 T  32 GE    1.010335579842E-18 -1.259230295243E-18 -6.795000000000E-02
      7 F  32 GE    6.494068399953E-19  2.816958458416E-18  6.795000000000E-02

 T = ATOM BELONGING TO THE ASYMMETRIC UNIT

 ****   12 SYMMOPS - TRANSLATORS IN FRACTIONAL UNITS
 **** MATRICES AND TRANSLATORS IN THE CRYSTALLOGRAPHIC REFERENCE FRAME
   V INV                    ROTATION MATRICES                   TRANSLATORS
   1   1  1.00  0.00  0.00  0.00  1.00  0.00  0.00  0.00  1.00  0.00  0.00  0.00
   2   3 -0.00 -0.00  1.00  1.00 -0.00 -0.00 -0.00  1.00 -0.00  0.00  0.00  0.00
   3   2 -0.00  1.00 -0.00 -0.00 -0.00  1.00  1.00 -0.00 -0.00  0.00  0.00  0.00
   4   4  0.00 -1.00  0.00 -1.00  0.00  0.00  0.00  0.00 -1.00  0.00  0.00  0.00
   5   5 -1.00  0.00  0.00  0.00  0.00 -1.00  0.00 -1.00  0.00  0.00  0.00  0.00
   6   6  0.00  0.00 -1.00  0.00 -1.00  0.00 -1.00  0.00  0.00  0.00  0.00  0.00
   7   7 -1.00  0.00  0.00  0.00 -1.00  0.00  0.00  0.00 -1.00  0.00  0.00  0.00
   8   9  0.00  0.00 -1.00 -1.00  0.00  0.00  0.00 -1.00  0.00  0.00  0.00  0.00
   9   8  0.00 -1.00  0.00  0.00  0.00 -1.00 -1.00  0.00  0.00  0.00  0.00  0.00
  10  10 -0.00  1.00 -0.00  1.00 -0.00 -0.00 -0.00 -0.00  1.00  0.00  0.00  0.00
  11  11  1.00 -0.00 -0.00 -0.00 -0.00  1.00 -0.00  1.00 -0.00  0.00  0.00  0.00
  12  12 -0.00 -0.00  1.00 -0.00  1.00 -0.00  1.00 -0.00 -0.00  0.00  0.00  0.00

 DIRECT LATTICE VECTORS CARTESIAN COMPONENTS (ANGSTROM)
          X                    Y                    Z
   0.257945089167E+01  -0.865492862564E-17   0.613243333333E+01
  -0.128972544583E+01   0.223387000000E+01   0.613243333333E+01
  -0.128972544583E+01  -0.223387000000E+01   0.613243333333E+01


 CARTESIAN COORDINATES - PRIMITIVE CELL
 *******************************************************************************
 *      ATOM          X(ANGSTROM)         Y(ANGSTROM)         Z(ANGSTROM)
 *******************************************************************************
    1     3 LI    0.000000000000E+00  0.000000000000E+00  9.198650000000E+00
    2     3 LI   -1.289725445835E+00 -2.233870000000E+00 -3.197205442667E-01
    3     3 LI   -2.579450891669E+00  4.983821154529E-17  3.197205442667E-01
    4     3 LI    1.152578498498E-17 -2.191658432496E-17 -3.527387918200E+00
    5     3 LI   -5.103948887791E-18  2.516845994929E-17  3.527387918200E+00
    6    32 GE    3.909166518465E-18 -7.882871901011E-18 -1.250096535000E+00
    7    32 GE    2.512669578723E-18  1.113474752534E-17  1.250096535000E+00

 *******************************************************************************
 LOCAL ATOMIC FUNCTIONS BASIS SET
 *******************************************************************************
   ATOM   X(AU)   Y(AU)   Z(AU)  N. TYPE  EXPONENT  S COEF   P COEF   D/F/G COEF
 *******************************************************************************
   1 LI   0.000   0.000  17.383
                                  1 S  
                                         6.269E+03 2.054E-04 0.000E+00 0.000E+00
                                         9.403E+02 1.592E-03 0.000E+00 0.000E+00
                                         2.142E+02 8.287E-03 0.000E+00 0.000E+00
                                         6.076E+01 3.386E-02 0.000E+00 0.000E+00
                                         1.992E+01 1.110E-01 0.000E+00 0.000E+00
                                         7.317E+00 2.745E-01 0.000E+00 0.000E+00
                                  2 S  
                                         2.972E+00 2.379E-01 0.000E+00 0.000E+00
                                         1.264E+00 3.077E-01 0.000E+00 0.000E+00
                                  3 S  
                                         5.026E-01 1.000E+00 0.000E+00 0.000E+00
                                  4 S  
                                         1.201E-01 1.000E+00 0.000E+00 0.000E+00
                           5-     7 P  
                                         1.320E-01 0.000E+00 1.000E+00 0.000E+00
   2 LI  -2.437  -4.221  -0.604
   3 LI  -4.874   0.000   0.604
   4 LI   0.000  -0.000  -6.666
   5 LI  -0.000   0.000   6.666
   6 GE   0.000  -0.000  -2.362
                                 36 S  
                                         4.661E+05 2.249E-04 0.000E+00 0.000E+00
                                         6.988E+04 1.744E-03 0.000E+00 0.000E+00
                                         1.590E+04 9.069E-03 0.000E+00 0.000E+00
                                         4.502E+03 3.691E-02 0.000E+00 0.000E+00
                                         1.466E+03 1.205E-01 0.000E+00 0.000E+00
                                         5.271E+02 2.875E-01 0.000E+00 0.000E+00
                                         2.050E+02 4.162E-01 0.000E+00 0.000E+00
                                         8.125E+01 2.240E-01 0.000E+00 0.000E+00
                                 37 S  
                                         5.057E+02-2.518E-02 0.000E+00 0.000E+00
                                         1.570E+02-1.190E-01 0.000E+00 0.000E+00
                                         2.576E+01 5.493E-01 0.000E+00 0.000E+00
                                         1.111E+01 5.294E-01 0.000E+00 0.000E+00
                                 38 S  
                                         1.727E+01-2.285E-01 0.000E+00 0.000E+00
                                         2.944E+00 6.838E-01 0.000E+00 0.000E+00
                                 39 S  
                                         1.479E+00 1.000E+00 0.000E+00 0.000E+00
                                 40 S  
                                         4.368E-01 1.000E+00 0.000E+00 0.000E+00
                                 41 S  
                                         1.684E-01 1.000E+00 0.000E+00 0.000E+00
                          42-    44 P  
                                         2.634E+03 0.000E+00 2.214E-03 0.000E+00
                                         6.240E+02 0.000E+00 1.814E-02 0.000E+00
                                         2.006E+02 0.000E+00 8.663E-02 0.000E+00
                                         7.510E+01 0.000E+00 2.565E-01 0.000E+00
                                         3.021E+01 0.000E+00 4.266E-01 0.000E+00
                                         1.244E+01 0.000E+00 2.620E-01 0.000E+00
                          45-    47 P  
                                         4.598E+01 0.000E+00-2.032E-02 0.000E+00
                                         6.995E+00 0.000E+00 3.201E-01 0.000E+00
                                         2.969E+00 0.000E+00 5.905E-01 0.000E+00
                          48-    50 P  
                                         1.204E+00 0.000E+00 1.000E+00 0.000E+00
                          51-    53 P  
                                         4.238E-01 0.000E+00 1.000E+00 0.000E+00
                          54-    56 P  
                                         1.519E-01 0.000E+00 1.000E+00 0.000E+00
                          57-    61 D  
                                         1.194E+02 0.000E+00 0.000E+00 1.059E-02
                                         3.506E+01 0.000E+00 0.000E+00 6.960E-02
                                         1.264E+01 0.000E+00 0.000E+00 2.281E-01
                                         4.889E+00 0.000E+00 0.000E+00 4.030E-01
                                         1.845E+00 0.000E+00 0.000E+00 4.130E-01
                          62-    66 D  
                                         1.553E+00 0.000E+00 0.000E+00 1.000E+00
                          67-    71 D  
                                         6.402E-01 0.000E+00 0.000E+00 1.000E+00
                          72-    76 D  
                                         2.806E-01 0.000E+00 0.000E+00 1.000E+00
   7 GE   0.000   0.000   2.362
 INFORMATION **** SET_MPP **** PCRYSTAL CALCULATION
 INFORMATION **** READM2 **** NEW DEFAULT: FOCK/KS MATRIX MIXING SET TO 30 %
 INFORMATION **** READM2 **** NEW DEFAULT: FULL DIRECT SCF MODE
 INFORMATION **** READM2 **** NEW DEFAULT: COULOMB BIPOLAR BUFFER SET TO 32 Mb
 INFORMATION **** READM2 **** NEW DEFAULT: EXCHANGE BIPOLAR BUFFER SET TO 32 Mb

 *******************************************************************************
 NEW DEFAULT: DFT INTEGRATION GRID INCREASED TO XLGRID
 NEW DEFAULT: DIIS ACCELERATOR ACTIVE
 USE KEYWORD NODIIS TO TURN IT OFF
 *******************************************************************************

 INFORMATION **** RDDFTP **** MAX N. OF POINTS ALLOWED IN A BATCH FOR NUMERICAL INTEGRATION         200
 INFORMATION **** TOLINTEG **** COULOMB AND EXCHANGE SERIES TOLERANCES MODIFIED
 INFORMATION **** TOLDEE **** SCF TOL ON TOTAL ENERGY SET TO          11
 INFORMATION **** EXCHSIZE **** EXCHANGE BIPOLAR BUFFER SIZE SET TO    12012489
 INFORMATION **** MAXCYCLE **** MAX NUMBER OF SCF CYCLES SET TO         150
 *******************************************************************************
 N. OF ATOMS PER CELL         7  COULOMB OVERLAP TOL         (T1) 10**   -7
 NUMBER OF SHELLS            55  COULOMB PENETRATION TOL     (T2) 10**   -7
 NUMBER OF AO               117  EXCHANGE OVERLAP TOL        (T3) 10**   -7
 N. OF ELECTRONS PER CELL    79  EXCHANGE PSEUDO OVP (F(G))  (T4) 10**   -9
 CORE ELECTRONS PER CELL     66  EXCHANGE PSEUDO OVP (P(G))  (T5) 10**  -30
 N. OF SYMMETRY OPERATORS    12  POLE ORDER IN MONO ZONE                  4
 *******************************************************************************
 TYPE OF CALCULATION :  RESTRICTED CLOSED SHELL
 KOHN-SHAM HAMILTONIAN

 (EXCHANGE)[CORRELATION] FUNCTIONAL:(PERDEW-BURKE-ERNZERHOF)[PERDEW-BURKE-ERNZERHOF]


 HYBRID EXCHANGE - PERCENTAGE OF FOCK EXCHANGE    25.0000

 CAPPA:IS1  8;IS2  8;IS3  8; K PTS MONK NET  65; SYMMOPS:K SPACE  12;G SPACE  12

 *******************************************************************************
 MAX NUMBER OF SCF CYCLES     150  CONVERGENCE ON DELTAP        10**-21
 WEIGHT OF F(I) IN F(I+1)      30% CONVERGENCE ON ENERGY        10**-11
 SHRINK. FACT.(MONKH.)    8  8  8  NUMBER OF K POINTS IN THE IBZ     65
 SHRINKING FACTOR(GILAT NET)    8  NUMBER OF K POINTS(GILAT NET)     65
 *******************************************************************************
 *** K POINTS COORDINATES (OBLIQUE COORDINATES IN UNITS OF IS =  8)
   1-R(  0  0  0)   2-C(  1  0  0)   3-C(  2  0  0)   4-C(  3  0  0)
   5-R(  4  0  0)   6-C(  1  1  0)   7-C(  2  1  0)   8-C(  3  1  0)
   9-C(  4  1  0)  10-C(  5  1  0)  11-C(  6  1  0)  12-C(  7  1  0)
  13-C(  2  2  0)  14-C(  3  2  0)  15-C(  4  2  0)  16-C(  5  2  0)
  17-C(  6  2  0)  18-C(  3  3  0)  19-C(  4  3  0)  20-C(  5  3  0)
  21-R(  4  4  0)  22-C(  1  1  1)  23-C(  2  1  1)  24-C(  3  1  1)
  25-C(  4  1  1)  26-C(  5  1  1)  27-C(  6  1  1)  28-C(  7  1  1)
  29-C(  2  2  1)  30-C(  3  2  1)  31-C(  4  2  1)  32-C(  5  2  1)
  33-C(  6  2  1)  34-C(  7  2  1)  35-C(  3  3  1)  36-C(  4  3  1)
  37-C(  5  3  1)  38-C(  6  3  1)  39-C(  7  3  1)  40-C(  4  4  1)
  41-C(  5  4  1)  42-C(  6  4  1)  43-C(  7  4  1)  44-C(  5  5  1)
  45-C(  6  5  1)  46-C(  6  6  1)  47-C(  2  2  2)  48-C(  3  2  2)
  49-C(  4  2  2)  50-C(  5  2  2)  51-C(  6  2  2)  52-C(  3  3  2)
  53-C(  4  3  2)  54-C(  5  3  2)  55-C(  6  3  2)  56-C(  4  4  2)
  57-C(  5  4  2)  58-C(  6  4  2)  59-C(  5  5  2)  60-C(  3  3  3)
  61-C(  4  3  3)  62-C(  5  3  3)  63-C(  4  4  3)  64-C(  5  4  3)
  65-R(  4  4  4)

 DIRECT LATTICE VECTORS COMPON. (A.U.)     RECIP. LATTICE VECTORS COMPON. (A.U.) 
        X            Y            Z              X            Y            Z
    4.8744558   -0.0000000   11.5886195      0.8593350   -0.0000000    0.1807286
   -2.4372279    4.2214025   11.5886195     -0.4296675    0.7442059    0.1807286
   -2.4372279   -4.2214025   11.5886195     -0.4296675   -0.7442059    0.1807286

 DISK SPACE FOR EIGENVECTORS (FTN 10)     1724814 REALS

 SYMMETRY ADAPTION OF THE BLOCH FUNCTIONS ENABLED
 TTTTTTTTTTTTTTTTTTTTTTTTTTTTTT gordsh1     TELAPSE        4.74 TCPU        2.29

 MATRIX SIZE: P(G)  674837, F(G)   53482, P(G) IRR   43071, F(G) IRR    9126
 MAX G-VECTOR INDEX FOR 1- AND 2-ELECTRON INTEGRALS 867

 TTTTTTTTTTTTTTTTTTTTTTTTTTTTTT INPUT       TELAPSE        4.74 TCPU        2.30

 NEIGHBORS OF THE NON-EQUIVALENT ATOMS

 N = NUMBER OF NEIGHBORS AT DISTANCE R
    ATOM  N     R/ANG      R/AU   NEIGHBORS (ATOM LABELS AND CELL INDICES)
   1 LI   6     2.6204     4.9517    4 LI   1 1 0    4 LI   1 0 1    4 LI   0 1 1
                                     5 LI   0 0 1    5 LI   1 0 0    5 LI   0 1 0
   1 LI   2     2.7465     5.1901    2 LI   1 1 0    3 LI   1 0 0
   1 LI   6     3.1547     5.9614    6 GE   1 1 0    6 GE   1 0 1    6 GE   0 1 1
                                     7 GE   0 0 1    7 GE   1 0 0    7 GE   0 1 0
   1 LI   6     4.2565     8.0437    2 LI   1 0 0    2 LI   0 1 0    2 LI   1 1-1
                                     3 LI   2 0 0    3 LI   1 1 0    3 LI   1 0 1
   1 LI   6     4.4677     8.4428    1 LI  -1 0 1    1 LI   1 0-1    1 LI  -1 1 0
                                     1 LI   1-1 0    1 LI   0-1 1    1 LI   0 1-1
   1 LI   6     5.0283     9.5022    6 GE   1 0 0    6 GE   0 1 0    6 GE   0 0 1
                                     7 GE   1 0 1    7 GE   0 1 1    7 GE   1 1 0

   2 LI   3     2.6575     5.0220    3 LI   0 0 0    3 LI   1-1 0    3 LI   0-1 1
   2 LI   3     2.7421     5.1818    6 GE   0 0 0    6 GE  -1 0 1    6 GE   0-1 1
   2 LI   1     2.7465     5.1901    1 LI  -1-1 0
   2 LI   1     2.9248     5.5270    4 LI   0 0 1
   2 LI   3     3.0196     5.7062    7 GE   0-1 1    7 GE   0 0 0    7 GE  -1 0 1
   2 LI   3     3.4462     6.5124    5 LI  -1-1 1    5 LI   0-1 0    5 LI  -1 0 0

   4 LI   1     2.2773     4.3035    6 GE   0 0 0
   4 LI   3     2.6204     4.9517    1 LI  -1-1 0    1 LI  -1 0-1    1 LI   0-1-1
   4 LI   3     2.7394     5.1767    5 LI  -1 0 0    5 LI   0-1 0    5 LI   0 0-1
   4 LI   3     2.9137     5.5060    7 GE  -1 0 0    7 GE   0-1 0    7 GE   0 0-1
   4 LI   1     2.9248     5.5270    2 LI   0 0-1
   4 LI   3     3.4462     6.5124    3 LI   0-1 0    3 LI   0 0-1    3 LI   1-1-1

   6 GE   1     2.2773     4.3035    4 LI   0 0 0
   6 GE   1     2.5002     4.7247    7 GE   0 0 0
   6 GE   3     2.7421     5.1818    2 LI   0 0 0    2 LI   1 0-1    2 LI   0 1-1
   6 GE   3     2.9137     5.5060    5 LI  -1 0 0    5 LI   0-1 0    5 LI   0 0-1
   6 GE   3     3.0196     5.7062    3 LI   0 0 0    3 LI   1 0-1    3 LI   1-1 0
   6 GE   3     3.1547     5.9614    1 LI  -1-1 0    1 LI  -1 0-1    1 LI   0-1-1


 SYMMETRY ALLOWED ELASTIC DISTORTION 1
  0.5773503  0.0000000  0.0000000
  0.0000000  0.5773503  0.0000000
  0.0000000  0.0000000  0.5773503

 SYMMETRY ALLOWED ELASTIC DISTORTION 2
  0.4082483  0.0000000  0.0000000
  0.0000000  0.4082483  0.0000000
  0.0000000  0.0000000 -0.8164966

 SYMMETRY ALLOWED INTERNAL DEGREE(S) OF FREEDOM:   3
 TTTTTTTTTTTTTTTTTTTTTTTTTTTTTT SYMM        TELAPSE        4.77 TCPU        2.32
 TTTTTTTTTTTTTTTTTTTTTTTTTTTTTT INT_SCREEN  TELAPSE        4.78 TCPU        2.33

 *******************************************************************************
 *                             OPTIMIZATION STARTS                             *
 *******************************************************************************
 RECLASIFICATION OF INDICES FOR INTEGRAL CALC ACCORDING TO DIFFERENT CRITERIA:
           FIXDELTE                  FIXDELTX              FIXDELTN
          0.10000000               0.80000000                 10
 *******************************************************************************

 *******************************************************************************
 COORDINATE AND CELL OPTIMIZATION - POINT    1

 DFT PARAMETERS

     ATOM       ELECTRONS   NET CHARGE   R(ANGSTROM)
   1   3  LI      3.0000      0.0000     1.57000000
   6  32  GE     32.0000      0.0000     1.39000000

 SIZE OF GRID=      24245
 TTTTTTTTTTTTTTTTTTTTTTTTTTTTTT MAKE_GRID2  TELAPSE        9.85 TCPU        7.38
 BECKE WEIGHT FUNCTION
 RADSAFE =     2.00
 TOLERANCES - DENSITY:10**- 6; POTENTIAL:10**- 9; GRID WGT:10**-14

 RADIAL INTEGRATION  - INTERVALS (POINTS,UPPER LIMIT):            1( 99,  4.0*R)

 ANGULAR INTEGRATION - INTERVALS (ACCURACY LEVEL [N. POINTS] UPPER LIMIT):
  1(  6[ 146]   0.2)  2( 11[ 302]   0.5)  3( 14[ 590]   0.9)  4( 18[1454]   3.5)
  5( 14[ 590]9999.0)
 TTTTTTTTTTTTTTTTTTTTTTTTTTTTTT INT_CALC    TELAPSE        9.88 TCPU        7.40

 *******************************************************************************
 ICSD_CollCode121533.cif                                                         
 CRYSTAL - SCF - TYPE OF CALCULATION :  RESTRICTED CLOSED SHELL
 *******************************************************************************

 CAPPA:IS1  8;IS2  8;IS3  8; K PTS MONK NET  65; SYMMOPS:K SPACE  12;G SPACE  12

 TTTTTTTTTTTTTTTTTTTTTTTTTTTTTT SDIK        TELAPSE        9.92 TCPU        7.45

 AAAAAAAAAAAAAAAAAAAAAAAAAAAAAAAAAAAAAAAAAAAAAAAAAAAAAAAAAAAAAAAAAAAAAAAAAAAAAAA
         ATOMIC WAVEFUNCTION(S)


 NUCLEAR CHARGE  3.0  SYMMETRY SPECIES            S
 N. ELECTRONS    3.0  NUMBER OF PRIMITIVE GTOS   10
                      NUMBER OF CONTRACTED GTOS   4
                      NUMBER OF CLOSED SHELLS     1
                      OPEN SHELL OCCUPATION       1

  ZNUC  SCFIT    TOTAL HF ENERGY   KINETIC ENERGY   VIRIAL THEOREM             ACCURACY
   3.0     6    -7.379265796E+00  7.680406116E+00 -1.960791094E+00  2.4E-06

 NUCLEAR CHARGE 32.0  SYMMETRY SPECIES            S    P    D
 N. ELECTRONS   32.0  NUMBER OF PRIMITIVE GTOS   17   12    8
                      NUMBER OF CONTRACTED GTOS   6    5    4
                      NUMBER OF CLOSED SHELLS     4    2    1
                      OPEN SHELL OCCUPATION       0    2    0

  ZNUC  SCFIT    TOTAL HF ENERGY   KINETIC ENERGY   VIRIAL THEOREM             ACCURACY
  32.0    15    -2.075280656E+03  2.075428356E+03 -1.999928834E+00  4.5E-06

 AAAAAAAAAAAAAAAAAAAAAAAAAAAAAAAAAAAAAAAAAAAAAAAAAAAAAAAAAAAAAAAAAAAAAAAAAAAAAAA

 TTTTTTTTTTTTTTTTTTTTTTTTTTTTTT MOQGAD      TELAPSE       10.02 TCPU        7.54
 TTTTTTTTTTTTTTTTTTTTTTTTTTTTTT SHELLXN     TELAPSE       11.55 TCPU        9.06
 TTTTTTTTTTTTTTTTTTTTTTTTTTTTTT MONMO3      TELAPSE       11.56 TCPU        9.07
 NUMERICALLY INTEGRATED DENSITY     78.9999955798
 TTTTTTTTTTTTTTTTTTTTTTTTTTTTTT NUMDFT      TELAPSE       11.70 TCPU        9.21
 CYC   0 ETOT(AU) -4.191136515182E+03 DETOT -4.19E+03 tst  0.00E+00 PX  1.00E+00
 TTTTTTTTTTTTTTTTTTTTTTTTTTTTTT DIIS        TELAPSE       11.70 TCPU        9.21
 TTTTTTTTTTTTTTTTTTTTTTTTTTTTTT FDIK        TELAPSE       11.71 TCPU        9.22
 POSSIBLY CONDUCTING STATE - EFERMI(AU) -1.0683872E-01 (RES. CHARGE  2.84E-14;IT. 10)
 TTTTTTTTTTTTTTTTTTTTTTTTTTTTTT PDIG        TELAPSE       11.73 TCPU        9.24
 TTTTTTTTTTTTTTTTTTTTTTTTTTTTTT MOQGAD      TELAPSE       11.73 TCPU        9.24
 TTTTTTTTTTTTTTTTTTTTTTTTTTTTTT SHELLXN     TELAPSE       13.30 TCPU       10.80
 TTTTTTTTTTTTTTTTTTTTTTTTTTTTTT MONMO3      TELAPSE       13.31 TCPU       10.80
 NUMERICALLY INTEGRATED DENSITY     78.9999953290
 TTTTTTTTTTTTTTTTTTTTTTTTTTTTTT NUMDFT      TELAPSE       13.46 TCPU       10.95
 CYC   1 ETOT(AU) -4.191248653116E+03 DETOT -1.12E-01 tst  0.00E+00 PX  1.00E+00
 TTTTTTTTTTTTTTTTTTTTTTTTTTTTTT DIIS        TELAPSE       13.46 TCPU       10.96
 DIIS TEST: 0.59892E-01 AT SCF   CYCLE   1 - MIX   30 %
 TTTTTTTTTTTTTTTTTTTTTTTTTTTTTT FDIK        TELAPSE       13.47 TCPU       10.96
 POSSIBLY CONDUCTING STATE - EFERMI(AU) -1.5794194E-01 (RES. CHARGE  4.04E-11;IT. 12)
 TTTTTTTTTTTTTTTTTTTTTTTTTTTTTT PDIG        TELAPSE       13.50 TCPU       10.99
 TTTTTTTTTTTTTTTTTTTTTTTTTTTTTT MOQGAD      TELAPSE       13.50 TCPU       10.99
 TTTTTTTTTTTTTTTTTTTTTTTTTTTTTT SHELLXN     TELAPSE       15.07 TCPU       12.55
 TTTTTTTTTTTTTTTTTTTTTTTTTTTTTT MONMO3      TELAPSE       15.07 TCPU       12.55
 NUMERICALLY INTEGRATED DENSITY     78.9999953196
 TTTTTTTTTTTTTTTTTTTTTTTTTTTTTT NUMDFT      TELAPSE       15.23 TCPU       12.71
 CYC   2 ETOT(AU) -4.191256378202E+03 DETOT -7.73E-03 tst  2.58E-03 PX  9.73E-02
 TTTTTTTTTTTTTTTTTTTTTTTTTTTTTT DIIS        TELAPSE       15.23 TCPU       12.71
 DIIS TEST: 0.14637E-01 AT SCF   CYCLE   2 - DIIS ACTIVE - HISTORY:     2 CYCLES
 TTTTTTTTTTTTTTTTTTTTTTTTTTTTTT FDIK        TELAPSE       15.29 TCPU       12.77
 POSSIBLY CONDUCTING STATE - EFERMI(AU) -1.8318454E-01 (RES. CHARGE  7.79E-11;IT. 12)
 TTTTTTTTTTTTTTTTTTTTTTTTTTTTTT PDIG        TELAPSE       15.31 TCPU       12.79
 TTTTTTTTTTTTTTTTTTTTTTTTTTTTTT MOQGAD      TELAPSE       15.32 TCPU       12.79
 TTTTTTTTTTTTTTTTTTTTTTTTTTTTTT SHELLXN     TELAPSE       16.88 TCPU       14.35
 TTTTTTTTTTTTTTTTTTTTTTTTTTTTTT MONMO3      TELAPSE       16.89 TCPU       14.36
 NUMERICALLY INTEGRATED DENSITY     78.9999953170
 TTTTTTTTTTTTTTTTTTTTTTTTTTTTTT NUMDFT      TELAPSE       17.04 TCPU       14.51
 CYC   3 ETOT(AU) -4.191257989490E+03 DETOT -1.61E-03 tst  6.87E-04 PX  2.18E-02
 TTTTTTTTTTTTTTTTTTTTTTTTTTTTTT DIIS        TELAPSE       17.04 TCPU       14.51
 DIIS TEST: 0.11009E-02 AT SCF   CYCLE   3 - DIIS ACTIVE - HISTORY:     3 CYCLES
 TTTTTTTTTTTTTTTTTTTTTTTTTTTTTT FDIK        TELAPSE       17.05 TCPU       14.52
 POSSIBLY CONDUCTING STATE - EFERMI(AU) -1.8697345E-01 (RES. CHARGE  5.28E-10;IT. 12)
 TTTTTTTTTTTTTTTTTTTTTTTTTTTTTT PDIG        TELAPSE       17.07 TCPU       14.54
 TTTTTTTTTTTTTTTTTTTTTTTTTTTTTT MOQGAD      TELAPSE       17.07 TCPU       14.54
 TTTTTTTTTTTTTTTTTTTTTTTTTTTTTT SHELLXN     TELAPSE       18.64 TCPU       16.10
 TTTTTTTTTTTTTTTTTTTTTTTTTTTTTT MONMO3      TELAPSE       18.65 TCPU       16.11
 NUMERICALLY INTEGRATED DENSITY     78.9999953147
 TTTTTTTTTTTTTTTTTTTTTTTTTTTTTT NUMDFT      TELAPSE       18.80 TCPU       16.26
 CYC   4 ETOT(AU) -4.191258136185E+03 DETOT -1.47E-04 tst  2.97E-05 PX  1.19E-02
 TTTTTTTTTTTTTTTTTTTTTTTTTTTTTT DIIS        TELAPSE       18.80 TCPU       16.26
 DIIS TEST: 0.32204E-03 AT SCF   CYCLE   4 - DIIS ACTIVE - HISTORY:     4 CYCLES
 TTTTTTTTTTTTTTTTTTTTTTTTTTTTTT FDIK        TELAPSE       18.82 TCPU       16.26
 POSSIBLY CONDUCTING STATE - EFERMI(AU) -1.8758528E-01 (RES. CHARGE  5.02E-12;IT. 12)
 TTTTTTTTTTTTTTTTTTTTTTTTTTTTTT PDIG        TELAPSE       18.84 TCPU       16.28
 TTTTTTTTTTTTTTTTTTTTTTTTTTTTTT MOQGAD      TELAPSE       18.84 TCPU       16.28
 TTTTTTTTTTTTTTTTTTTTTTTTTTTTTT SHELLXN     TELAPSE       20.40 TCPU       17.84
 TTTTTTTTTTTTTTTTTTTTTTTTTTTTTT MONMO3      TELAPSE       20.41 TCPU       17.84
 NUMERICALLY INTEGRATED DENSITY     78.9999953166
 TTTTTTTTTTTTTTTTTTTTTTTTTTTTTT NUMDFT      TELAPSE       20.56 TCPU       18.00
 CYC   5 ETOT(AU) -4.191258195614E+03 DETOT -5.94E-05 tst  6.61E-06 PX  2.58E-03
 TTTTTTTTTTTTTTTTTTTTTTTTTTTTTT DIIS        TELAPSE       20.57 TCPU       18.00
 DIIS TEST: 0.39372E-04 AT SCF   CYCLE   5 - DIIS ACTIVE - HISTORY:     5 CYCLES
 TTTTTTTTTTTTTTTTTTTTTTTTTTTTTT FDIK        TELAPSE       20.57 TCPU       18.01
 POSSIBLY CONDUCTING STATE - EFERMI(AU) -1.8729931E-01 (RES. CHARGE  1.08E-12;IT.  8)
 TTTTTTTTTTTTTTTTTTTTTTTTTTTTTT PDIG        TELAPSE       20.59 TCPU       18.03
 TTTTTTTTTTTTTTTTTTTTTTTTTTTTTT MOQGAD      TELAPSE       20.60 TCPU       18.03
 TTTTTTTTTTTTTTTTTTTTTTTTTTTTTT SHELLXN     TELAPSE       22.16 TCPU       19.58
 TTTTTTTTTTTTTTTTTTTTTTTTTTTTTT MONMO3      TELAPSE       22.16 TCPU       19.59
 NUMERICALLY INTEGRATED DENSITY     78.9999953148
 TTTTTTTTTTTTTTTTTTTTTTTTTTTTTT NUMDFT      TELAPSE       22.32 TCPU       19.74
 CYC   6 ETOT(AU) -4.191258205844E+03 DETOT -1.02E-05 tst  5.01E-07 PX  1.52E-03
 TTTTTTTTTTTTTTTTTTTTTTTTTTTTTT DIIS        TELAPSE       22.32 TCPU       19.74
 DIIS TEST: 0.11432E-06 AT SCF   CYCLE   6 - DIIS ACTIVE - HISTORY:     6 CYCLES
 TTTTTTTTTTTTTTTTTTTTTTTTTTTTTT FDIK        TELAPSE       22.33 TCPU       19.75
 POSSIBLY CONDUCTING STATE - EFERMI(AU) -1.8736980E-01 (RES. CHARGE  5.24E-10;IT. 10)
 TTTTTTTTTTTTTTTTTTTTTTTTTTTTTT PDIG        TELAPSE       22.35 TCPU       19.77
 TTTTTTTTTTTTTTTTTTTTTTTTTTTTTT MOQGAD      TELAPSE       22.35 TCPU       19.77
 TTTTTTTTTTTTTTTTTTTTTTTTTTTTTT SHELLXN     TELAPSE       23.91 TCPU       21.33
 TTTTTTTTTTTTTTTTTTTTTTTTTTTTTT MONMO3      TELAPSE       23.92 TCPU       21.33
 NUMERICALLY INTEGRATED DENSITY     78.9999953149
 TTTTTTTTTTTTTTTTTTTTTTTTTTTTTT NUMDFT      TELAPSE       24.07 TCPU       21.49
 CYC   7 ETOT(AU) -4.191258205768E+03 DETOT  7.59E-08 tst  7.12E-08 PX  2.61E-04
 TTTTTTTTTTTTTTTTTTTTTTTTTTTTTT DIIS        TELAPSE       24.08 TCPU       21.49
 DIIS TEST: 0.39481E-08 AT SCF   CYCLE   7 - DIIS ACTIVE - HISTORY:     7 CYCLES
 TTTTTTTTTTTTTTTTTTTTTTTTTTTTTT FDIK        TELAPSE       24.09 TCPU       21.50
 POSSIBLY CONDUCTING STATE - EFERMI(AU) -1.8736937E-01 (RES. CHARGE  1.18E-11;IT.  4)
 TTTTTTTTTTTTTTTTTTTTTTTTTTTTTT PDIG        TELAPSE       24.11 TCPU       21.52
 TTTTTTTTTTTTTTTTTTTTTTTTTTTTTT MOQGAD      TELAPSE       24.11 TCPU       21.52
 TTTTTTTTTTTTTTTTTTTTTTTTTTTTTT SHELLXN     TELAPSE       25.67 TCPU       23.07
 TTTTTTTTTTTTTTTTTTTTTTTTTTTTTT MONMO3      TELAPSE       25.68 TCPU       23.08
 NUMERICALLY INTEGRATED DENSITY     78.9999953148
 TTTTTTTTTTTTTTTTTTTTTTTTTTTTTT NUMDFT      TELAPSE       25.83 TCPU       23.23
 CYC   8 ETOT(AU) -4.191258205812E+03 DETOT -4.39E-08 tst  2.29E-09 PX  2.41E-05
 TTTTTTTTTTTTTTTTTTTTTTTTTTTTTT DIIS        TELAPSE       25.83 TCPU       23.24
 DIIS TEST: 0.12776E-09 AT SCF   CYCLE   8 - DIIS ACTIVE - HISTORY:     8 CYCLES
 TTTTTTTTTTTTTTTTTTTTTTTTTTTTTT FDIK        TELAPSE       25.84 TCPU       23.24
 POSSIBLY CONDUCTING STATE - EFERMI(AU) -1.8736984E-01 (RES. CHARGE  1.95E-10;IT.  8)
 TTTTTTTTTTTTTTTTTTTTTTTTTTTTTT PDIG        TELAPSE       25.86 TCPU       23.26
 TTTTTTTTTTTTTTTTTTTTTTTTTTTTTT MOQGAD      TELAPSE       25.86 TCPU       23.26
 TTTTTTTTTTTTTTTTTTTTTTTTTTTTTT SHELLXN     TELAPSE       27.43 TCPU       24.82
 TTTTTTTTTTTTTTTTTTTTTTTTTTTTTT MONMO3      TELAPSE       27.43 TCPU       24.82
 NUMERICALLY INTEGRATED DENSITY     78.9999953148
 TTTTTTTTTTTTTTTTTTTTTTTTTTTTTT NUMDFT      TELAPSE       27.59 TCPU       24.98
 CYC   9 ETOT(AU) -4.191258205796E+03 DETOT  1.56E-08 tst  2.68E-11 PX  5.98E-06
 TTTTTTTTTTTTTTTTTTTTTTTTTTTTTT DIIS        TELAPSE       27.59 TCPU       24.98
 DIIS TEST: 0.15062E-11 AT SCF   CYCLE   9 - DIIS ACTIVE - HISTORY:     9 CYCLES
 TTTTTTTTTTTTTTTTTTTTTTTTTTTTTT FDIK        TELAPSE       27.65 TCPU       25.04
 POSSIBLY CONDUCTING STATE - EFERMI(AU) -1.8737000E-01 (RES. CHARGE  6.47E-11;IT.  8)
 TTTTTTTTTTTTTTTTTTTTTTTTTTTTTT PDIG        TELAPSE       27.67 TCPU       25.06
 TTTTTTTTTTTTTTTTTTTTTTTTTTTTTT MOQGAD      TELAPSE       27.67 TCPU       25.06
 TTTTTTTTTTTTTTTTTTTTTTTTTTTTTT SHELLXN     TELAPSE       29.23 TCPU       26.61
 TTTTTTTTTTTTTTTTTTTTTTTTTTTTTT MONMO3      TELAPSE       29.24 TCPU       26.61
 NUMERICALLY INTEGRATED DENSITY     78.9999953148
 TTTTTTTTTTTTTTTTTTTTTTTTTTTTTT NUMDFT      TELAPSE       29.39 TCPU       26.77
 CYC  10 ETOT(AU) -4.191258205804E+03 DETOT -7.96E-09 tst  1.52E-12 PX  7.21E-07
 TTTTTTTTTTTTTTTTTTTTTTTTTTTTTT DIIS        TELAPSE       29.39 TCPU       26.77
 DIIS TEST: 0.46749E-14 AT SCF   CYCLE  10 - DIIS ACTIVE - HISTORY:    10 CYCLES
 TTTTTTTTTTTTTTTTTTTTTTTTTTTTTT FDIK        TELAPSE       29.40 TCPU       26.78
 POSSIBLY CONDUCTING STATE - EFERMI(AU) -1.8737000E-01 (RES. CHARGE  4.08E-10;IT.  4)
 TTTTTTTTTTTTTTTTTTTTTTTTTTTTTT PDIG        TELAPSE       29.42 TCPU       26.80
 TTTTTTTTTTTTTTTTTTTTTTTTTTTTTT MOQGAD      TELAPSE       29.43 TCPU       26.80
 TTTTTTTTTTTTTTTTTTTTTTTTTTTTTT SHELLXN     TELAPSE       30.99 TCPU       28.35
 TTTTTTTTTTTTTTTTTTTTTTTTTTTTTT MONMO3      TELAPSE       30.99 TCPU       28.36
 NUMERICALLY INTEGRATED DENSITY     78.9999953148
 TTTTTTTTTTTTTTTTTTTTTTTTTTTTTT NUMDFT      TELAPSE       31.15 TCPU       28.51
 CYC  11 ETOT(AU) -4.191258205783E+03 DETOT  2.12E-08 tst  1.08E-14 PX  7.51E-08
 TTTTTTTTTTTTTTTTTTTTTTTTTTTTTT DIIS        TELAPSE       31.15 TCPU       28.51
 DIIS TEST: 0.22743E-16 AT SCF   CYCLE  11 - DIIS ACTIVE - HISTORY:    11 CYCLES
 TTTTTTTTTTTTTTTTTTTTTTTTTTTTTT FDIK        TELAPSE       31.16 TCPU       28.52
 POSSIBLY CONDUCTING STATE - EFERMI(AU) -1.8737000E-01 (RES. CHARGE  0.00E+00;IT.  4)
 TTTTTTTTTTTTTTTTTTTTTTTTTTTTTT PDIG        TELAPSE       31.18 TCPU       28.54
 TTTTTTTTTTTTTTTTTTTTTTTTTTTTTT MOQGAD      TELAPSE       31.18 TCPU       28.54
 TTTTTTTTTTTTTTTTTTTTTTTTTTTTTT SHELLXN     TELAPSE       32.74 TCPU       30.10
 TTTTTTTTTTTTTTTTTTTTTTTTTTTTTT MONMO3      TELAPSE       32.75 TCPU       30.10
 NUMERICALLY INTEGRATED DENSITY     78.9999953148
 TTTTTTTTTTTTTTTTTTTTTTTTTTTTTT NUMDFT      TELAPSE       32.90 TCPU       30.25
 CYC  12 ETOT(AU) -4.191258205808E+03 DETOT -2.52E-08 tst  1.27E-17 PX  1.18E-09
 TTTTTTTTTTTTTTTTTTTTTTTTTTTTTT DIIS        TELAPSE       32.90 TCPU       30.26
 DIIS TEST: 0.86686E-18 AT SCF   CYCLE  12 - DIIS ACTIVE - HISTORY:    11 CYCLES
 TTTTTTTTTTTTTTTTTTTTTTTTTTTTTT FDIK        TELAPSE       32.92 TCPU       30.26
 POSSIBLY CONDUCTING STATE - EFERMI(AU) -1.8737000E-01 (RES. CHARGE  3.34E-10;IT.  0)
 TTTTTTTTTTTTTTTTTTTTTTTTTTTTTT PDIG        TELAPSE       32.93 TCPU       30.28
 TTTTTTTTTTTTTTTTTTTTTTTTTTTTTT MOQGAD      TELAPSE       32.94 TCPU       30.28
 TTTTTTTTTTTTTTTTTTTTTTTTTTTTTT SHELLXN     TELAPSE       34.50 TCPU       31.84
 TTTTTTTTTTTTTTTTTTTTTTTTTTTTTT MONMO3      TELAPSE       34.50 TCPU       31.84
 NUMERICALLY INTEGRATED DENSITY     78.9999953148
 TTTTTTTTTTTTTTTTTTTTTTTTTTTTTT NUMDFT      TELAPSE       34.66 TCPU       32.00
 CYC  13 ETOT(AU) -4.191258205829E+03 DETOT -2.07E-08 tst  8.81E-20 PX  9.82E-11
 TTTTTTTTTTTTTTTTTTTTTTTTTTTTTT DIIS        TELAPSE       34.66 TCPU       32.00
 DIIS TEST: 0.70529E-18 AT SCF   CYCLE  13 - DIIS ACTIVE - HISTORY:     9 CYCLES
 TTTTTTTTTTTTTTTTTTTTTTTTTTTTTT FDIK        TELAPSE       34.67 TCPU       32.01
 POSSIBLY CONDUCTING STATE - EFERMI(AU) -1.8737000E-01 (RES. CHARGE  5.02E-10;IT.  0)
 TTTTTTTTTTTTTTTTTTTTTTTTTTTTTT PDIG        TELAPSE       34.69 TCPU       32.02
 TTTTTTTTTTTTTTTTTTTTTTTTTTTTTT MOQGAD      TELAPSE       34.69 TCPU       32.03
 TTTTTTTTTTTTTTTTTTTTTTTTTTTTTT SHELLXN     TELAPSE       36.25 TCPU       33.58
 TTTTTTTTTTTTTTTTTTTTTTTTTTTTTT MONMO3      TELAPSE       36.26 TCPU       33.59
 NUMERICALLY INTEGRATED DENSITY     78.9999953148
 TTTTTTTTTTTTTTTTTTTTTTTTTTTTTT NUMDFT      TELAPSE       36.41 TCPU       33.74
 CYC  14 ETOT(AU) -4.191258205839E+03 DETOT -1.04E-08 tst  3.21E-22 PX  3.89E-11
 TTTTTTTTTTTTTTTTTTTTTTTTTTTTTT DIIS        TELAPSE       36.42 TCPU       33.74
 DIIS TEST: 0.32327E-18 AT SCF   CYCLE  14 - DIIS ACTIVE - HISTORY:    10 CYCLES
 TTTTTTTTTTTTTTTTTTTTTTTTTTTTTT FDIK        TELAPSE       36.43 TCPU       33.75
 POSSIBLY CONDUCTING STATE - EFERMI(AU) -1.8737000E-01 (RES. CHARGE  7.93E-10;IT.  0)
 TTTTTTTTTTTTTTTTTTTTTTTTTTTTTT PDIG        TELAPSE       36.45 TCPU       33.77
 TTTTTTTTTTTTTTTTTTTTTTTTTTTTTT MOQGAD      TELAPSE       36.45 TCPU       33.77
 TTTTTTTTTTTTTTTTTTTTTTTTTTTTTT SHELLXN     TELAPSE       38.02 TCPU       35.33
 TTTTTTTTTTTTTTTTTTTTTTTTTTTTTT MONMO3      TELAPSE       38.03 TCPU       35.34
 NUMERICALLY INTEGRATED DENSITY     78.9999953148
 TTTTTTTTTTTTTTTTTTTTTTTTTTTTTT NUMDFT      TELAPSE       38.18 TCPU       35.49
 CYC  15 ETOT(AU) -4.191258205857E+03 DETOT -1.80E-08 tst  2.74E-21 PX  7.56E-11
 TTTTTTTTTTTTTTTTTTTTTTTTTTTTTT DIIS        TELAPSE       38.18 TCPU       35.49
 DIIS TEST: 0.58255E-20 AT SCF   CYCLE  15 - DIIS ACTIVE - HISTORY:    10 CYCLES
 TTTTTTTTTTTTTTTTTTTTTTTTTTTTTT FDIK        TELAPSE       38.19 TCPU       35.50
 POSSIBLY CONDUCTING STATE - EFERMI(AU) -1.8737000E-01 (RES. CHARGE  7.57E-10;IT.  0)
 TTTTTTTTTTTTTTTTTTTTTTTTTTTTTT PDIG        TELAPSE       38.21 TCPU       35.52
 TTTTTTTTTTTTTTTTTTTTTTTTTTTTTT MOQGAD      TELAPSE       38.21 TCPU       35.52
 TTTTTTTTTTTTTTTTTTTTTTTTTTTTTT SHELLXN     TELAPSE       39.78 TCPU       37.08
 TTTTTTTTTTTTTTTTTTTTTTTTTTTTTT MONMO3      TELAPSE       39.78 TCPU       37.08
 NUMERICALLY INTEGRATED DENSITY     78.9999953148
 TTTTTTTTTTTTTTTTTTTTTTTTTTTTTT NUMDFT      TELAPSE       39.93 TCPU       37.23
 CYC  16 ETOT(AU) -4.191258205855E+03 DETOT  2.23E-09 tst  1.98E-23 PX  1.66E-11
 TTTTTTTTTTTTTTTTTTTTTTTTTTTTTT DIIS        TELAPSE       39.94 TCPU       37.24
 DIIS TEST: 0.58307E-22 AT SCF   CYCLE  16 - DIIS ACTIVE - HISTORY:    10 CYCLES
 TTTTTTTTTTTTTTTTTTTTTTTTTTTTTT FDIK        TELAPSE       39.95 TCPU       37.24
 POSSIBLY CONDUCTING STATE - EFERMI(AU) -1.8737000E-01 (RES. CHARGE  7.55E-10;IT.  0)
 TTTTTTTTTTTTTTTTTTTTTTTTTTTTTT PDIG        TELAPSE       39.97 TCPU       37.26
 TTTTTTTTTTTTTTTTTTTTTTTTTTTTTT MOQGAD      TELAPSE       39.97 TCPU       37.26
 TTTTTTTTTTTTTTTTTTTTTTTTTTTTTT SHELLXN     TELAPSE       41.53 TCPU       38.82
 TTTTTTTTTTTTTTTTTTTTTTTTTTTTTT MONMO3      TELAPSE       41.54 TCPU       38.82
 NUMERICALLY INTEGRATED DENSITY     78.9999953148
 TTTTTTTTTTTTTTTTTTTTTTTTTTTTTT NUMDFT      TELAPSE       41.69 TCPU       38.97
 CYC  17 ETOT(AU) -4.191258205855E+03 DETOT  1.13E-10 tst  8.95E-25 PX  1.67E-11
 TTTTTTTTTTTTTTTTTTTTTTTTTTTTTT DIIS        TELAPSE       41.70 TCPU       38.99
 DIIS TEST: 0.47534E-23 AT SCF   CYCLE  17 - DIIS ACTIVE - HISTORY:    10 CYCLES
 TTTTTTTTTTTTTTTTTTTTTTTTTTTTTT FDIK        TELAPSE       41.71 TCPU       38.99
 POSSIBLY CONDUCTING STATE - EFERMI(AU) -1.8737000E-01 (RES. CHARGE  7.56E-10;IT.  0)
 TTTTTTTTTTTTTTTTTTTTTTTTTTTTTT PDIG        TELAPSE       41.73 TCPU       39.01
 TTTTTTTTTTTTTTTTTTTTTTTTTTTTTT MOQGAD      TELAPSE       41.73 TCPU       39.01
 TTTTTTTTTTTTTTTTTTTTTTTTTTTTTT SHELLXN     TELAPSE       43.29 TCPU       40.57
 TTTTTTTTTTTTTTTTTTTTTTTTTTTTTT MONMO3      TELAPSE       43.30 TCPU       40.57
 NUMERICALLY INTEGRATED DENSITY     78.9999953148
 TTTTTTTTTTTTTTTTTTTTTTTTTTTTTT NUMDFT      TELAPSE       43.45 TCPU       40.72
 CYC  18 ETOT(AU) -4.191258205855E+03 DETOT -6.09E-11 tst  2.12E-25 PX  3.16E-12
 TTTTTTTTTTTTTTTTTTTTTTTTTTTTTT DIIS        TELAPSE       43.45 TCPU       40.73
 DIIS TEST: 0.20915E-23 AT SCF   CYCLE  18 - DIIS ACTIVE - HISTORY:    11 CYCLES
 TTTTTTTTTTTTTTTTTTTTTTTTTTTTTT FDIK        TELAPSE       43.46 TCPU       40.73
 POSSIBLY CONDUCTING STATE - EFERMI(AU) -1.8737000E-01 (RES. CHARGE  7.56E-10;IT.  0)
 TTTTTTTTTTTTTTTTTTTTTTTTTTTTTT PDIG        TELAPSE       43.48 TCPU       40.75
 TTTTTTTTTTTTTTTTTTTTTTTTTTTTTT MOQGAD      TELAPSE       43.48 TCPU       40.75
 TTTTTTTTTTTTTTTTTTTTTTTTTTTTTT SHELLXN     TELAPSE       45.22 TCPU       42.48
 TTTTTTTTTTTTTTTTTTTTTTTTTTTTTT MONMO3      TELAPSE       45.22 TCPU       42.49
 NUMERICALLY INTEGRATED DENSITY     78.9999953148
 TTTTTTTTTTTTTTTTTTTTTTTTTTTTTT NUMDFT      TELAPSE       45.38 TCPU       42.64
 CYC  19 ETOT(AU) -4.191258205855E+03 DETOT  0.00E+00 tst  1.13E-25 PX  2.24E-12
 TTTTTTTTTTTTTTTTTTTTTTTTTTTTTT DIIS        TELAPSE       45.38 TCPU       42.64
 DIIS TEST: 0.37515E-23 AT SCF   CYCLE  19 - DIIS ACTIVE - HISTORY:    12 CYCLES
 TTTTTTTTTTTTTTTTTTTTTTTTTTTTTT FDIK        TELAPSE       45.39 TCPU       42.65
 POSSIBLY CONDUCTING STATE - EFERMI(AU) -1.8737000E-01 (RES. CHARGE  7.56E-10;IT.  0)
 TTTTTTTTTTTTTTTTTTTTTTTTTTTTTT PDIG        TELAPSE       45.41 TCPU       42.67
 TTTTTTTTTTTTTTTTTTTTTTTTTTTTTT MOQGAD      TELAPSE       45.41 TCPU       42.67
 TTTTTTTTTTTTTTTTTTTTTTTTTTTTTT SHELLXN     TELAPSE       46.98 TCPU       44.23
 ::: PSEUDO TOTAL   ENERGY                        -4.0650193810997E+03
 ::: VIRIAL COEFFICIENT                            1.0146516024240E+00
 TTTTTTTTTTTTTTTTTTTTTTTTTTTTTT MONMO3      TELAPSE       46.98 TCPU       44.23
 NUMERICALLY INTEGRATED DENSITY     78.9999953148
 EXCHANGE ENERGY: -0.122689571868E+03  CORRELATION ENERGY: -0.354925288753E+01
 TTTTTTTTTTTTTTTTTTTTTTTTTTTTTT NUMDFT      TELAPSE       47.14 TCPU       44.38
 CYC  20 ETOT(AU) -4.191258205855E+03 DETOT  9.09E-13 tst  1.17E-26 PX  2.24E-12

 == SCF ENDED - CONVERGENCE ON ENERGY      E(AU) -4.1912582058549E+03 CYCLES  20


 ENERGY EXPRESSION=HARTREE+FOCK EXCH*0.25000+(PBE        EXCH)*0.75000+PBE        CORR


 TOTAL ENERGY(DFT)(AU)( 20) -4.1912582058549E+03 DE 9.1E-13 tester 1.2E-26
 TTTTTTTTTTTTTTTTTTTTTTTTTTTTTT EDFT        TELAPSE       47.14 TCPU       44.38

 *******************************************************************************
 *                             FORCE CALCULATION                               *
 *******************************************************************************

 TTTTTTTTTTTTTTTTTTTTTTTTTTTTTT NUMDFG      TELAPSE       47.84 TCPU       45.08
 INFORMATION **** EXCPOG **** EXCH. BIPO BUFFER LENGTH (WORDS) =     2989332
 INFORMATION **** GENPOG **** BIPO BUFFER LENGTH (WORDS) =      823500
 TTTTTTTTTTTTTTTTTTTTTTTTTTTTTT SHELXG      TELAPSE       57.87 TCPU       55.05

 CARTESIAN FORCES IN HARTREE/BOHR (ANALYTICAL)
   ATOM                     X                   Y                   Z
   1   3            -1.234781039047E-16  1.771691997504E-17  9.032661160919E-16
   2   3             2.206342882557E-15  4.538790204212E-17  1.646380336117E-03
   3   3            -2.889133945199E-15 -2.251726666709E-16 -1.646380336119E-03
   4   3             1.095010139110E-15 -4.348861380558E-17 -3.293958240839E-02
   5   3            -9.467227778574E-16  3.447611349270E-17  3.293958240839E-02
   6  32            -1.517345126512E-15 -1.171505254651E-15  1.316920927245E-02
   7  32             2.170852791515E-15  1.337236868900E-15 -1.316920927245E-02

 RESULTANT FORCE    -4.474140291341E-18 -5.348730717595E-18 -1.020017403874E-15

 ATOMIC PART

 SYMMETRY ALLOWED FORCES (ANALYTICAL) (DIRECTION, FORCE)

    1  2.3283334E-03    2 -4.6583604E-02    3  1.8624074E-02

 CELL PART

 GRADIENT WITH RESPECT TO THE CELL PARAMETER IN HARTREE/BOHR
ORDER: -D/DA1X, -D/DA1Y, -D/DA1Z
       -D/DA2X, -D/DA2Y, -D/DA2Z
       -D/DA3X, -D/DA3Y, -D/DA3Z
  0.432403648609E-02 -0.185040434183E-14  0.811909861351E-03
 -0.216201824305E-02  0.374472544384E-02  0.811909861350E-03
 -0.216201824304E-02 -0.374472544385E-02  0.811909861350E-03

STRESS TENSOR, IN HARTREE/BOHR^3:
ORDER: 11 12 13
       21 22 23
       31 32 33
 -0.441947706508E-04  0.349386237864E-16  0.767391271366E-16
  0.506079534394E-18 -0.441947706508E-04  0.875248803606E-16
 -0.554813612790E-17 -0.262076671330E-17 -0.394570777985E-04

PRESSURE FROM THE STRESS TENSOR,
IN HARTREE/BOHR^3:  0.42616E-04
PRESSURE IN GIGAPASCAL:  0.1254E+01
CONVERSION FACTOR: 1 HARTREE/BOHR^3= 29421 GIGAPASCAL
WHEN USING VALUES FOR BOHR RADIUS AND HARTREE
FROM IUPAC WEBSITE, APRIL 2009
ENTHALPY: -4.1912277196159E+03

 SYMMETRY ALLOWED FORCES (ANALYTICAL) (DIRECTION, FORCE)

    1  4.3092801E-03    2  1.6641082E-04
 TTTTTTTTTTTTTTTTTTTTTTTTTTTTTT TOTGRA      TELAPSE       57.97 TCPU       55.15
 INFORMATION **** optc001 **** GEOMETRY OUTPUT FILE
 CLASSICAL MODEL (SCHLEGEL) USED AS INITIAL HESSIAN MATRIX
 REFERENCE GEOMETRY DEFINED

 MAX GRADIENT      0.046584  THRESHOLD              0.000045 CONVERGED NO
 RMS GRADIENT      0.022543  THRESHOLD              0.000030 CONVERGED NO

 GRADIENT NORM     0.050407  GRADIENT THRESHOLD     0.500000

 EIGENVALUES OF THE ESTIMATED HESSIAN
  0.5078E-01  0.5691E-01  0.5209       1.040       1.411    

 INITIAL TRUST RADIUS    0.5000000000E+00

 PREDICTED ENERGY CHANGE    -0.149E-02

 INITIAL DISPLACEMENTS
  0.013651 -0.040919  0.039406  0.070447  0.059030
 TTTTTTTTTTTTTTTTTTTTTTTTTTTTTT OPTI        TELAPSE       58.16 TCPU       55.33

 OPTOPTOPTOPTOPTOPTOPTOPTOPTOPTOPTOPTOPTOPTOPTOPTOPTOPTOPTOPTOPTOPTOPTOPTOPTOPT

 - INFORMATION ON SCF MOVED TO SCFOUT.LOG
 GEOMETRY OPTIMIZATION INFORMATION STORED IN OPTINFO.DAT

 OPTOPTOPTOPTOPTOPTOPTOPTOPTOPTOPTOPTOPTOPTOPTOPTOPTOPTOPTOPTOPTOPTOPTOPTOPTOPT
 *******************************************************************************
 COORDINATE AND CELL OPTIMIZATION - POINT    2
 *******************************************************************************
 LATTICE PARAMETERS (ANGSTROMS AND DEGREES) - BOHR = 0.5291772083 ANGSTROM
 PRIMITIVE CELL - CENTRING CODE 7/0 VOLUME=   107.066598 - DENSITY  2.837 g/cm^3
         A              B              C           ALPHA      BETA       GAMMA 
     6.65999829     6.65999829     6.65999829    39.390282  39.390282  39.390282
 *******************************************************************************
 ATOMS IN THE ASYMMETRIC UNIT    4 - ATOMS IN THE UNIT CELL:    7
     ATOM                 X/A                 Y/B                 Z/C    
 *******************************************************************************
      1 T   3 LI   -5.000000000000E-01  5.000000000000E-01  5.000000000000E-01
      2 T   3 LI   -3.504343587362E-01 -3.504343587362E-01 -3.504343587362E-01
      3 F   3 LI    3.504343587362E-01  3.504343587362E-01  3.504343587362E-01
      4 T   3 LI   -1.925662592671E-01 -1.925662592671E-01 -1.925662592671E-01
      5 F   3 LI    1.925662592671E-01  1.925662592671E-01  1.925662592671E-01
      6 T  32 GE   -6.714851071211E-02 -6.714851071211E-02 -6.714851071211E-02
      7 F  32 GE    6.714851071211E-02  6.714851071211E-02  6.714851071211E-02

 TRANSFORMATION MATRIX PRIMITIVE-CRYSTALLOGRAPHIC CELL
  1.0000  0.0000  1.0000 -1.0000  1.0000  1.0000  0.0000 -1.0000  1.0000

 *******************************************************************************
 CRYSTALLOGRAPHIC CELL (VOLUME=        321.19979262)
         A              B              C           ALPHA      BETA       GAMMA 
     4.48904422     4.48904422    18.40504390    90.000000  90.000000 120.000000

 COORDINATES IN THE CRYSTALLOGRAPHIC CELL
     ATOM                 X/A                 Y/B                 Z/C    
 *******************************************************************************
      1 T   3 LI    0.000000000000E+00  0.000000000000E+00 -5.000000000000E-01
      2 T   3 LI   -3.333333333333E-01  3.333333333333E-01 -1.710102540286E-02
      3 F   3 LI    3.333333333333E-01 -3.333333333333E-01  1.710102540286E-02
      4 T   3 LI    2.978873015753E-18 -3.416082686383E-18 -1.925662592671E-01
      5 F   3 LI   -1.319130595915E-18  4.973810849556E-18  1.925662592671E-01
      6 T  32 GE    1.010335579842E-18 -1.259230295243E-18 -6.714851071211E-02
      7 F  32 GE    6.494068399953E-19  2.816958458416E-18  6.714851071211E-02

 T = ATOM BELONGING TO THE ASYMMETRIC UNIT

 TOTAL ENERGY(DFT)(AU)( 32) -4.1912608511850E+03     DE (AU)   -2.645E-03

 UPDATED TRUST RADIUS     0.500E+00

 SYMMETRY ALLOWED FORCES  (COORDINATE, FORCE)

    1  1.8676444E-03    2 -4.1474206E-02    3  8.8041886E-03    4  2.9298171E-03
    5 -3.4316232E-04

 GRADIENT NORM     0.042542  GRADIENT THRESHOLD     0.500000

 EIGENVALUES OF THE ESTIMATED HESSIAN
  0.3587E-01  0.5589E-01  0.2758      0.7789       1.253    

 PREDICTED ENERGY CHANGE    -0.404E-02

 MAX GRADIENT      0.041474  THRESHOLD              0.000045 CONVERGED NO
 RMS GRADIENT      0.019025  THRESHOLD              0.000030 CONVERGED NO
 MAX DISPLAC.      0.213615  THRESHOLD              0.000180 CONVERGED NO
 RMS DISPLAC.      0.150225  THRESHOLD              0.000120 CONVERGED NO
 TTTTTTTTTTTTTTTTTTTTTTTTTTTTTT OPTI        TELAPSE      128.90 TCPU      125.56
 *******************************************************************************
 COORDINATE AND CELL OPTIMIZATION - POINT    3
 *******************************************************************************
 LATTICE PARAMETERS (ANGSTROMS AND DEGREES) - BOHR = 0.5291772083 ANGSTROM
 PRIMITIVE CELL - CENTRING CODE 7/0 VOLUME=   110.326283 - DENSITY  2.753 g/cm^3
         A              B              C           ALPHA      BETA       GAMMA 
     6.68354185     6.68354185     6.68354185    39.830440  39.830440  39.830440
 *******************************************************************************
 ATOMS IN THE ASYMMETRIC UNIT    4 - ATOMS IN THE UNIT CELL:    7
     ATOM                 X/A                 Y/B                 Z/C    
 *******************************************************************************
      1 T   3 LI   -5.000000000000E-01 -5.000000000000E-01 -5.000000000000E-01
      2 T   3 LI   -3.496675728195E-01 -3.496675728195E-01 -3.496675728195E-01
      3 F   3 LI    3.496675728195E-01  3.496675728195E-01  3.496675728195E-01
      4 T   3 LI   -1.957511568440E-01 -1.957511568440E-01 -1.957511568440E-01
      5 F   3 LI    1.957511568440E-01  1.957511568440E-01  1.957511568440E-01
      6 T  32 GE   -6.496189400825E-02 -6.496189400825E-02 -6.496189400825E-02
      7 F  32 GE    6.496189400825E-02  6.496189400825E-02  6.496189400825E-02

 TRANSFORMATION MATRIX PRIMITIVE-CRYSTALLOGRAPHIC CELL
  1.0000  0.0000  1.0000 -1.0000  1.0000  1.0000  0.0000 -1.0000  1.0000

 *******************************************************************************
 CRYSTALLOGRAPHIC CELL (VOLUME=        330.97884763)
         A              B              C           ALPHA      BETA       GAMMA 
     4.55322062     4.55322062    18.43453636    90.000000  90.000000 120.000000

 COORDINATES IN THE CRYSTALLOGRAPHIC CELL
     ATOM                 X/A                 Y/B                 Z/C    
 *******************************************************************************
      1 T   3 LI    0.000000000000E+00  0.000000000000E+00 -5.000000000000E-01
      2 T   3 LI   -3.333333333333E-01  3.333333333333E-01 -1.633423948620E-02
      3 F   3 LI    3.333333333333E-01 -3.333333333333E-01  1.633423948620E-02
      4 T   3 LI    2.978873015753E-18 -3.416082686383E-18 -1.957511568440E-01
      5 F   3 LI   -1.319130595915E-18  4.973810849556E-18  1.957511568440E-01
      6 T  32 GE    1.010335579842E-18 -1.259230295243E-18 -6.496189400825E-02
      7 F  32 GE    6.494068399953E-19  2.816958458416E-18  6.496189400825E-02

 T = ATOM BELONGING TO THE ASYMMETRIC UNIT

 TOTAL ENERGY(DFT)(AU)( 37) -4.1912656049870E+03     DE (AU)   -4.754E-03

 UPDATED TRUST RADIUS     0.500E+00

 SYMMETRY ALLOWED FORCES  (COORDINATE, FORCE)

    1  2.4612610E-04    2 -2.6835092E-02    3 -2.0938078E-02    4 -6.1126569E-04
    5 -2.6226058E-03

 GRADIENT NORM     0.034144  GRADIENT THRESHOLD     0.500000

 EIGENVALUES OF THE ESTIMATED HESSIAN
  0.3581E-01  0.5565E-01  0.2386      0.7395       1.273    

 PREDICTED ENERGY CHANGE    -0.837E-03

 MAX GRADIENT      0.026835  THRESHOLD              0.000045 CONVERGED NO
 RMS GRADIENT      0.015270  THRESHOLD              0.000030 CONVERGED NO
 MAX DISPLAC.      0.068638  THRESHOLD              0.000180 CONVERGED NO
 RMS DISPLAC.      0.039160  THRESHOLD              0.000120 CONVERGED NO
 TTTTTTTTTTTTTTTTTTTTTTTTTTTTTT OPTI        TELAPSE      208.38 TCPU      204.38
 *******************************************************************************
 COORDINATE AND CELL OPTIMIZATION - POINT    4
 *******************************************************************************
 LATTICE PARAMETERS (ANGSTROMS AND DEGREES) - BOHR = 0.5291772083 ANGSTROM
 PRIMITIVE CELL - CENTRING CODE 7/0 VOLUME=   111.160094 - DENSITY  2.733 g/cm^3
         A              B              C           ALPHA      BETA       GAMMA 
     6.69810262     6.69810262     6.69810262    39.853311  39.853311  39.853311
 *******************************************************************************
 ATOMS IN THE ASYMMETRIC UNIT    4 - ATOMS IN THE UNIT CELL:    7
     ATOM                 X/A                 Y/B                 Z/C    
 *******************************************************************************
      1 T   3 LI    5.000000000000E-01  5.000000000000E-01  5.000000000000E-01
      2 T   3 LI   -3.496271311264E-01 -3.496271311264E-01 -3.496271311264E-01
      3 F   3 LI    3.496271311264E-01  3.496271311264E-01  3.496271311264E-01
      4 T   3 LI   -1.971471839231E-01 -1.971471839231E-01 -1.971471839231E-01
      5 F   3 LI    1.971471839231E-01  1.971471839231E-01  1.971471839231E-01
      6 T  32 GE   -6.485201041346E-02 -6.485201041346E-02 -6.485201041346E-02
      7 F  32 GE    6.485201041346E-02  6.485201041346E-02  6.485201041346E-02

 TRANSFORMATION MATRIX PRIMITIVE-CRYSTALLOGRAPHIC CELL
  1.0000  0.0000  1.0000 -1.0000  1.0000  1.0000  0.0000 -1.0000  1.0000

 *******************************************************************************
 CRYSTALLOGRAPHIC CELL (VOLUME=        333.48028173)
         A              B              C           ALPHA      BETA       GAMMA 
     4.56565396     4.56565396    18.47283465    90.000000  90.000000 120.000000

 COORDINATES IN THE CRYSTALLOGRAPHIC CELL
     ATOM                 X/A                 Y/B                 Z/C    
 *******************************************************************************
      1 T   3 LI    0.000000000000E+00  0.000000000000E+00 -5.000000000000E-01
      2 T   3 LI   -3.333333333333E-01  3.333333333333E-01 -1.629379779307E-02
      3 F   3 LI    3.333333333333E-01 -3.333333333333E-01  1.629379779307E-02
      4 T   3 LI    2.978873015753E-18 -3.416082686383E-18 -1.971471839231E-01
      5 F   3 LI   -1.319130595915E-18  4.973810849556E-18  1.971471839231E-01
      6 T  32 GE    1.010335579842E-18 -1.259230295243E-18 -6.485201041346E-02
      7 F  32 GE    6.494068399953E-19  2.816958458416E-18  6.485201041346E-02

 T = ATOM BELONGING TO THE ASYMMETRIC UNIT

 TOTAL ENERGY(DFT)(AU)( 11) -4.1912670914829E+03     DE (AU)   -1.486E-03

 UPDATED TRUST RADIUS     0.500E+00

 SYMMETRY ALLOWED FORCES  (COORDINATE, FORCE)

    1 -2.1369386E-04    2 -2.2938237E-02    3 -2.3602999E-02    4 -2.0361297E-03
    5 -2.4901786E-03

 GRADIENT NORM     0.033070  GRADIENT THRESHOLD     0.500000

 EIGENVALUES OF THE ESTIMATED HESSIAN
  0.3958E-01  0.5107E-01  0.9461E-01  0.4742       1.055    

 PREDICTED ENERGY CHANGE    -0.420E-02

 MAX GRADIENT      0.023603  THRESHOLD              0.000045 CONVERGED NO
 RMS GRADIENT      0.014790  THRESHOLD              0.000030 CONVERGED NO
 MAX DISPLAC.      0.327534  THRESHOLD              0.000180 CONVERGED NO
 RMS DISPLAC.      0.156762  THRESHOLD              0.000120 CONVERGED NO
 TTTTTTTTTTTTTTTTTTTTTTTTTTTTTT OPTI        TELAPSE      242.18 TCPU      237.95
 *******************************************************************************
 COORDINATE AND CELL OPTIMIZATION - POINT    5
 *******************************************************************************
 LATTICE PARAMETERS (ANGSTROMS AND DEGREES) - BOHR = 0.5291772083 ANGSTROM
 PRIMITIVE CELL - CENTRING CODE 7/0 VOLUME=   112.847385 - DENSITY  2.692 g/cm^3
         A              B              C           ALPHA      BETA       GAMMA 
     6.74362832     6.74362832     6.74362832    39.733352  39.733352  39.733352
 *******************************************************************************
 ATOMS IN THE ASYMMETRIC UNIT    4 - ATOMS IN THE UNIT CELL:    7
     ATOM                 X/A                 Y/B                 Z/C    
 *******************************************************************************
      1 T   3 LI   -5.000000000000E-01 -5.000000000000E-01 -5.000000000000E-01
      2 T   3 LI   -3.499252919094E-01 -3.499252919094E-01 -3.499252919094E-01
      3 F   3 LI    3.499252919094E-01  3.499252919094E-01  3.499252919094E-01
      4 T   3 LI   -2.038089321847E-01 -2.038089321847E-01 -2.038089321847E-01
      5 F   3 LI    2.038089321847E-01  2.038089321847E-01  2.038089321847E-01
      6 T  32 GE   -6.570888917174E-02 -6.570888917174E-02 -6.570888917174E-02
      7 F  32 GE    6.570888917174E-02  6.570888917174E-02  6.570888917174E-02

 TRANSFORMATION MATRIX PRIMITIVE-CRYSTALLOGRAPHIC CELL
  1.0000  0.0000  1.0000 -1.0000  1.0000  1.0000  0.0000 -1.0000  1.0000

 *******************************************************************************
 CRYSTALLOGRAPHIC CELL (VOLUME=        338.54215373)
         A              B              C           ALPHA      BETA       GAMMA 
     4.58340958     4.58340958    18.60821796    90.000000  90.000000 120.000000

 COORDINATES IN THE CRYSTALLOGRAPHIC CELL
     ATOM                 X/A                 Y/B                 Z/C    
 *******************************************************************************
      1 T   3 LI    0.000000000000E+00  0.000000000000E+00  5.000000000000E-01
      2 T   3 LI   -3.333333333333E-01  3.333333333333E-01 -1.659195857608E-02
      3 F   3 LI    3.333333333333E-01 -3.333333333333E-01  1.659195857608E-02
      4 T   3 LI    2.978873015753E-18 -3.416082686383E-18 -2.038089321847E-01
      5 F   3 LI   -1.319130595915E-18  4.973810849556E-18  2.038089321847E-01
      6 T  32 GE    1.010335579842E-18 -1.259230295243E-18 -6.570888917174E-02
      7 F  32 GE    6.494068399953E-19  2.816958458416E-18  6.570888917174E-02

 T = ATOM BELONGING TO THE ASYMMETRIC UNIT

 TOTAL ENERGY(DFT)(AU)( 12) -4.1912728332118E+03     DE (AU)   -5.742E-03

 UPDATED TRUST RADIUS     0.500E+00

 SYMMETRY ALLOWED FORCES  (COORDINATE, FORCE)

    1 -2.0469073E-03    2 -9.6110759E-03    3 -1.9166387E-02    4 -6.5344785E-03
    5 -1.0473462E-03

 GRADIENT NORM     0.022532  GRADIENT THRESHOLD     0.500000

 EIGENVALUES OF THE ESTIMATED HESSIAN
  0.4101E-01  0.4689E-01  0.6633E-01  0.4358       1.038    

 PREDICTED ENERGY CHANGE    -0.221E-02

 MAX GRADIENT      0.019166  THRESHOLD              0.000045 CONVERGED NO
 RMS GRADIENT      0.010077  THRESHOLD              0.000030 CONVERGED NO
 MAX DISPLAC.      0.250417  THRESHOLD              0.000180 CONVERGED NO
 RMS DISPLAC.      0.127519  THRESHOLD              0.000120 CONVERGED NO
 TTTTTTTTTTTTTTTTTTTTTTTTTTTTTT OPTI        TELAPSE      277.60 TCPU      273.12
 *******************************************************************************
 COORDINATE AND CELL OPTIMIZATION - POINT    6
 *******************************************************************************
 LATTICE PARAMETERS (ANGSTROMS AND DEGREES) - BOHR = 0.5291772083 ANGSTROM
 PRIMITIVE CELL - CENTRING CODE 7/0 VOLUME=   111.521816 - DENSITY  2.724 g/cm^3
         A              B              C           ALPHA      BETA       GAMMA 
     6.73710763     6.73710763     6.73710763    39.531009  39.531009  39.531009
 *******************************************************************************
 ATOMS IN THE ASYMMETRIC UNIT    4 - ATOMS IN THE UNIT CELL:    7
     ATOM                 X/A                 Y/B                 Z/C    
 *******************************************************************************
      1 T   3 LI    5.000000000000E-01  5.000000000000E-01  5.000000000000E-01
      2 T   3 LI   -3.504559484043E-01 -3.504559484043E-01 -3.504559484043E-01
      3 F   3 LI    3.504559484043E-01  3.504559484043E-01  3.504559484043E-01
      4 T   3 LI   -2.089021929146E-01 -2.089021929146E-01 -2.089021929146E-01
      5 F   3 LI    2.089021929146E-01  2.089021929146E-01  2.089021929146E-01
      6 T  32 GE   -6.712259230391E-02 -6.712259230391E-02 -6.712259230391E-02
      7 F  32 GE    6.712259230391E-02  6.712259230391E-02  6.712259230391E-02

 TRANSFORMATION MATRIX PRIMITIVE-CRYSTALLOGRAPHIC CELL
  1.0000  0.0000  1.0000 -1.0000  1.0000  1.0000  0.0000 -1.0000  1.0000

 *******************************************************************************
 CRYSTALLOGRAPHIC CELL (VOLUME=        334.56544901)
         A              B              C           ALPHA      BETA       GAMMA 
     4.55659418     4.55659418    18.60671709    90.000000  90.000000 120.000000

 COORDINATES IN THE CRYSTALLOGRAPHIC CELL
     ATOM                 X/A                 Y/B                 Z/C    
 *******************************************************************************
      1 T   3 LI    0.000000000000E+00  0.000000000000E+00  5.000000000000E-01
      2 T   3 LI   -3.333333333333E-01  3.333333333333E-01 -1.712261507097E-02
      3 F   3 LI    3.333333333333E-01 -3.333333333333E-01  1.712261507097E-02
      4 T   3 LI    2.978873015753E-18 -3.416082686383E-18 -2.089021929146E-01
      5 F   3 LI   -1.319130595915E-18  4.973810849556E-18  2.089021929146E-01
      6 T  32 GE    1.010335579842E-18 -1.259230295243E-18 -6.712259230391E-02
      7 F  32 GE    6.494068399953E-19  2.816958458416E-18  6.712259230391E-02

 T = ATOM BELONGING TO THE ASYMMETRIC UNIT

 TOTAL ENERGY(DFT)(AU)( 22) -4.1912758662217E+03     DE (AU)   -3.033E-03

 UPDATED TRUST RADIUS     0.500E+00

 SYMMETRY ALLOWED FORCES  (COORDINATE, FORCE)

    1 -3.3046199E-03    2 -1.7931384E-03    3 -1.0037995E-02    4 -6.6038048E-03
    5 -1.5387979E-04

 GRADIENT NORM     0.012591  GRADIENT THRESHOLD     0.500000

 EIGENVALUES OF THE ESTIMATED HESSIAN
  0.2763E-01  0.5033E-01  0.6015E-01  0.3956       1.035    

 PREDICTED ENERGY CHANGE    -0.117E-02

 MAX GRADIENT      0.010038  THRESHOLD              0.000045 CONVERGED NO
 RMS GRADIENT      0.005631  THRESHOLD              0.000030 CONVERGED NO
 MAX DISPLAC.      0.195735  THRESHOLD              0.000180 CONVERGED NO
 RMS DISPLAC.      0.119773  THRESHOLD              0.000120 CONVERGED NO
 TTTTTTTTTTTTTTTTTTTTTTTTTTTTTT OPTI        TELAPSE      330.81 TCPU      325.95
 *******************************************************************************
 COORDINATE AND CELL OPTIMIZATION - POINT    7
 *******************************************************************************
 LATTICE PARAMETERS (ANGSTROMS AND DEGREES) - BOHR = 0.5291772083 ANGSTROM
 PRIMITIVE CELL - CENTRING CODE 7/0 VOLUME=   108.463430 - DENSITY  2.801 g/cm^3
         A              B              C           ALPHA      BETA       GAMMA 
     6.69501113     6.69501113     6.69501113    39.328009  39.328009  39.328009
 *******************************************************************************
 ATOMS IN THE ASYMMETRIC UNIT    4 - ATOMS IN THE UNIT CELL:    7
     ATOM                 X/A                 Y/B                 Z/C    
 *******************************************************************************
      1 T   3 LI    5.000000000000E-01  5.000000000000E-01  5.000000000000E-01
      2 T   3 LI   -3.510392292717E-01 -3.510392292717E-01 -3.510392292717E-01
      3 F   3 LI    3.510392292717E-01  3.510392292717E-01  3.510392292717E-01
      4 T   3 LI   -2.119065050907E-01 -2.119065050907E-01 -2.119065050907E-01
      5 F   3 LI    2.119065050907E-01  2.119065050907E-01  2.119065050907E-01
      6 T  32 GE   -6.850440358688E-02 -6.850440358688E-02 -6.850440358688E-02
      7 F  32 GE    6.850440358688E-02  6.850440358688E-02  6.850440358688E-02

 TRANSFORMATION MATRIX PRIMITIVE-CRYSTALLOGRAPHIC CELL
  1.0000  0.0000  1.0000 -1.0000  1.0000  1.0000  0.0000 -1.0000  1.0000

 *******************************************************************************
 CRYSTALLOGRAPHIC CELL (VOLUME=        325.39028855)
         A              B              C           ALPHA      BETA       GAMMA 
     4.50579239     4.50579239    18.50681149    90.000000  90.000000 120.000000

 COORDINATES IN THE CRYSTALLOGRAPHIC CELL
     ATOM                 X/A                 Y/B                 Z/C    
 *******************************************************************************
      1 T   3 LI    0.000000000000E+00  0.000000000000E+00  5.000000000000E-01
      2 T   3 LI   -3.333333333333E-01  3.333333333333E-01 -1.770589593837E-02
      3 F   3 LI    3.333333333333E-01 -3.333333333333E-01  1.770589593837E-02
      4 T   3 LI    2.978873015753E-18 -3.416082686383E-18 -2.119065050907E-01
      5 F   3 LI   -1.319130595915E-18  4.973810849556E-18  2.119065050907E-01
      6 T  32 GE    1.010335579842E-18 -1.259230295243E-18 -6.850440358688E-02
      7 F  32 GE    6.494068399953E-19  2.816958458416E-18  6.850440358688E-02

 T = ATOM BELONGING TO THE ASYMMETRIC UNIT

 TOTAL ENERGY(DFT)(AU)( 23) -4.1912773230531E+03     DE (AU)   -1.457E-03

 UPDATED TRUST RADIUS     0.500E+00

 SYMMETRY ALLOWED FORCES  (COORDINATE, FORCE)

    1 -3.7051922E-03    2  2.3879942E-03    3 -2.3515343E-03    4 -3.8686083E-03
    5  6.1987623E-04

 GRADIENT NORM     0.006349  GRADIENT THRESHOLD     0.500000

 EIGENVALUES OF THE ESTIMATED HESSIAN
  0.2132E-01  0.5158E-01  0.5838E-01  0.3758       1.044    

 PREDICTED ENERGY CHANGE    -0.332E-03

 MAX GRADIENT      0.003869  THRESHOLD              0.000045 CONVERGED NO
 RMS GRADIENT      0.002839  THRESHOLD              0.000030 CONVERGED NO
 MAX DISPLAC.      0.143586  THRESHOLD              0.000180 CONVERGED NO
 RMS DISPLAC.      0.066718  THRESHOLD              0.000120 CONVERGED NO
 TTTTTTTTTTTTTTTTTTTTTTTTTTTTTT OPTI        TELAPSE      385.63 TCPU      380.39
 *******************************************************************************
 COORDINATE AND CELL OPTIMIZATION - POINT    8
 *******************************************************************************
 LATTICE PARAMETERS (ANGSTROMS AND DEGREES) - BOHR = 0.5291772083 ANGSTROM
 PRIMITIVE CELL - CENTRING CODE 7/0 VOLUME=   106.276790 - DENSITY  2.858 g/cm^3
         A              B              C           ALPHA      BETA       GAMMA 
     6.65598165     6.65598165     6.65598165    39.264568  39.264568  39.264568
 *******************************************************************************
 ATOMS IN THE ASYMMETRIC UNIT    4 - ATOMS IN THE UNIT CELL:    7
     ATOM                 X/A                 Y/B                 Z/C    
 *******************************************************************************
      1 T   3 LI    5.000000000000E-01 -5.000000000000E-01 -5.000000000000E-01
      2 T   3 LI   -3.513553413001E-01 -3.513553413001E-01 -3.513553413001E-01
      3 F   3 LI    3.513553413001E-01  3.513553413001E-01  3.513553413001E-01
      4 T   3 LI   -2.119066531758E-01 -2.119066531758E-01 -2.119066531758E-01
      5 F   3 LI    2.119066531758E-01  2.119066531758E-01  2.119066531758E-01
      6 T  32 GE   -6.907665337864E-02 -6.907665337864E-02 -6.907665337864E-02
      7 F  32 GE    6.907665337864E-02  6.907665337864E-02  6.907665337864E-02

 TRANSFORMATION MATRIX PRIMITIVE-CRYSTALLOGRAPHIC CELL
  1.0000  0.0000  1.0000 -1.0000  1.0000  1.0000  0.0000 -1.0000  1.0000

 *******************************************************************************
 CRYSTALLOGRAPHIC CELL (VOLUME=        318.83037035)
         A              B              C           ALPHA      BETA       GAMMA 
     4.47258446     4.47258446    18.40398842    90.000000  90.000000 120.000000

 COORDINATES IN THE CRYSTALLOGRAPHIC CELL
     ATOM                 X/A                 Y/B                 Z/C    
 *******************************************************************************
      1 T   3 LI    0.000000000000E+00  0.000000000000E+00  5.000000000000E-01
      2 T   3 LI   -3.333333333333E-01  3.333333333333E-01 -1.802200796677E-02
      3 F   3 LI    3.333333333333E-01 -3.333333333333E-01  1.802200796677E-02
      4 T   3 LI    2.978873015753E-18 -3.416082686383E-18 -2.119066531758E-01
      5 F   3 LI   -1.319130595915E-18  4.973810849556E-18  2.119066531758E-01
      6 T  32 GE    1.010335579842E-18 -1.259230295243E-18 -6.907665337864E-02
      7 F  32 GE    6.494068399953E-19  2.816958458416E-18  6.907665337864E-02

 T = ATOM BELONGING TO THE ASYMMETRIC UNIT

 TOTAL ENERGY(DFT)(AU)( 22) -4.1912777479537E+03     DE (AU)   -4.249E-04

 UPDATED TRUST RADIUS     0.500E+00

 SYMMETRY ALLOWED FORCES  (COORDINATE, FORCE)

    1 -3.1029869E-03    2  1.9502985E-03    3  5.4103655E-04    4 -1.4355058E-03
    5  9.7709105E-04

 GRADIENT NORM     0.004091  GRADIENT THRESHOLD     0.500000

 EIGENVALUES OF THE ESTIMATED HESSIAN
  0.1946E-01  0.4417E-01  0.5182E-01  0.3671       1.041    

 PREDICTED ENERGY CHANGE    -0.111E-03

 MAX GRADIENT      0.003103  THRESHOLD              0.000045 CONVERGED NO
 RMS GRADIENT      0.001830  THRESHOLD              0.000030 CONVERGED NO
 MAX DISPLAC.      0.074589  THRESHOLD              0.000180 CONVERGED NO
 RMS DISPLAC.      0.038769  THRESHOLD              0.000120 CONVERGED NO
 TTTTTTTTTTTTTTTTTTTTTTTTTTTTTT OPTI        TELAPSE      438.65 TCPU      433.02
 *******************************************************************************
 COORDINATE AND CELL OPTIMIZATION - POINT    9
 *******************************************************************************
 LATTICE PARAMETERS (ANGSTROMS AND DEGREES) - BOHR = 0.5291772083 ANGSTROM
 PRIMITIVE CELL - CENTRING CODE 7/0 VOLUME=   105.160178 - DENSITY  2.888 g/cm^3
         A              B              C           ALPHA      BETA       GAMMA 
     6.62878647     6.62878647     6.62878647    39.303172  39.303172  39.303172
 *******************************************************************************
 ATOMS IN THE ASYMMETRIC UNIT    4 - ATOMS IN THE UNIT CELL:    7
     ATOM                 X/A                 Y/B                 Z/C    
 *******************************************************************************
      1 T   3 LI    5.000000000000E-01  5.000000000000E-01  5.000000000000E-01
      2 T   3 LI   -3.515133177081E-01 -3.515133177081E-01 -3.515133177081E-01
      3 F   3 LI    3.515133177081E-01  3.515133177081E-01  3.515133177081E-01
      4 T   3 LI   -2.110849013456E-01 -2.110849013456E-01 -2.110849013456E-01
      5 F   3 LI    2.110849013456E-01  2.110849013456E-01  2.110849013456E-01
      6 T  32 GE   -6.919315020027E-02 -6.919315020027E-02 -6.919315020027E-02
      7 F  32 GE    6.919315020027E-02  6.919315020027E-02  6.919315020027E-02

 TRANSFORMATION MATRIX PRIMITIVE-CRYSTALLOGRAPHIC CELL
  1.0000  0.0000  1.0000 -1.0000  1.0000  1.0000  0.0000 -1.0000  1.0000

 *******************************************************************************
 CRYSTALLOGRAPHIC CELL (VOLUME=        315.48053452)
         A              B              C           ALPHA      BETA       GAMMA 
     4.45851664     4.45851664    18.32572451    90.000000  90.000000 120.000000

 COORDINATES IN THE CRYSTALLOGRAPHIC CELL
     ATOM                 X/A                 Y/B                 Z/C    
 *******************************************************************************
      1 T   3 LI    0.000000000000E+00  0.000000000000E+00  5.000000000000E-01
      2 T   3 LI   -3.333333333333E-01  3.333333333333E-01 -1.817998437478E-02
      3 F   3 LI    3.333333333333E-01 -3.333333333333E-01  1.817998437478E-02
      4 T   3 LI    2.978873015753E-18 -3.416082686383E-18 -2.110849013456E-01
      5 F   3 LI   -1.319130595915E-18  4.973810849556E-18  2.110849013456E-01
      6 T  32 GE    1.010335579842E-18 -1.259230295243E-18 -6.919315020027E-02
      7 F  32 GE    6.494068399953E-19  2.816958458416E-18  6.919315020027E-02

 T = ATOM BELONGING TO THE ASYMMETRIC UNIT

 TOTAL ENERGY(DFT)(AU)( 20) -4.1912778752933E+03     DE (AU)   -1.273E-04

 UPDATED TRUST RADIUS     0.500E+00

 SYMMETRY ALLOWED FORCES  (COORDINATE, FORCE)

    1 -2.4153018E-03    2  2.9665490E-04    3  9.8666073E-04    4 -1.0567507E-05
    5  8.2688513E-04

 GRADIENT NORM     0.002753  GRADIENT THRESHOLD     0.500000

 EIGENVALUES OF THE ESTIMATED HESSIAN
  0.2078E-01  0.3369E-01  0.5528E-01  0.3615       1.006    

 PREDICTED ENERGY CHANGE    -0.163E-04

 MAX GRADIENT      0.002415  THRESHOLD              0.000045 CONVERGED NO
 RMS GRADIENT      0.001231  THRESHOLD              0.000030 CONVERGED NO
 MAX DISPLAC.      0.022617  THRESHOLD              0.000180 CONVERGED NO
 RMS DISPLAC.      0.012429  THRESHOLD              0.000120 CONVERGED NO
 TTTTTTTTTTTTTTTTTTTTTTTTTTTTTT OPTI        TELAPSE      488.23 TCPU      482.25
 *******************************************************************************
 COORDINATE AND CELL OPTIMIZATION - POINT   10
 *******************************************************************************
 LATTICE PARAMETERS (ANGSTROMS AND DEGREES) - BOHR = 0.5291772083 ANGSTROM
 PRIMITIVE CELL - CENTRING CODE 7/0 VOLUME=   105.040120 - DENSITY  2.892 g/cm^3
         A              B              C           ALPHA      BETA       GAMMA 
     6.62056992     6.62056992     6.62056992    39.361126  39.361126  39.361126
 *******************************************************************************
 ATOMS IN THE ASYMMETRIC UNIT    4 - ATOMS IN THE UNIT CELL:    7
     ATOM                 X/A                 Y/B                 Z/C    
 *******************************************************************************
      1 T   3 LI    5.000000000000E-01  5.000000000000E-01  5.000000000000E-01
      2 T   3 LI   -3.515776861559E-01 -3.515776861559E-01 -3.515776861559E-01
      3 F   3 LI    3.515776861559E-01  3.515776861559E-01  3.515776861559E-01
      4 T   3 LI   -2.108115025305E-01 -2.108115025305E-01 -2.108115025305E-01
      5 F   3 LI    2.108115025305E-01  2.108115025305E-01  2.108115025305E-01
      6 T  32 GE   -6.914785053236E-02 -6.914785053236E-02 -6.914785053236E-02
      7 F  32 GE    6.914785053236E-02  6.914785053236E-02  6.914785053236E-02

 TRANSFORMATION MATRIX PRIMITIVE-CRYSTALLOGRAPHIC CELL
  1.0000  0.0000  1.0000 -1.0000  1.0000  1.0000  0.0000 -1.0000  1.0000

 *******************************************************************************
 CRYSTALLOGRAPHIC CELL (VOLUME=        315.12036079)
         A              B              C           ALPHA      BETA       GAMMA 
     4.45929624     4.45929624    18.29840282    90.000000  90.000000 120.000000

 COORDINATES IN THE CRYSTALLOGRAPHIC CELL
     ATOM                 X/A                 Y/B                 Z/C    
 *******************************************************************************
      1 T   3 LI    0.000000000000E+00  0.000000000000E+00  5.000000000000E-01
      2 T   3 LI   -3.333333333333E-01  3.333333333333E-01 -1.824435282256E-02
      3 F   3 LI    3.333333333333E-01 -3.333333333333E-01  1.824435282256E-02
      4 T   3 LI    2.978873015753E-18 -3.416082686383E-18 -2.108115025305E-01
[...]

 TTTTTTTTTTTTTTTTTTTTTTTTTTTTTT gordsh1     TELAPSE     7442.78 TCPU     7120.30

 MATRIX SIZE: P(G)  677721, F(G)   53754, P(G) IRR   43250, F(G) IRR    9164
 MAX G-VECTOR INDEX FOR 1- AND 2-ELECTRON INTEGRALS1131

 TTTTTTTTTTTTTTTTTTTTTTTTTTTTTT INPUT       TELAPSE     7442.78 TCPU     7120.30

 SYMMETRY ALLOWED INTERNAL DEGREE(S) OF FREEDOM:   3
 TTTTTTTTTTTTTTTTTTTTTTTTTTTTTT SYMM        TELAPSE     7442.80 TCPU     7120.32
 TTTTTTTTTTTTTTTTTTTTTTTTTTTTTT INT_SCREEN  TELAPSE     7442.81 TCPU     7120.33

 ATOMIC BORN CHARGE TENSOR (UNITS OF e, ELECTRON CHARGE).
 DYNAMIC CHARGE = 1/3 * TRACE .

 ATOM   1 LI DYNAMIC CHARGE     0.420870

              1           2           3
   1     4.3831E-01  4.6259E-18  2.2765E-18
   2     0.0000E+00  4.3831E-01  2.8912E-19
   3    -8.9383E-20  2.1684E-19  3.8600E-01

 ATOM   2 LI DYNAMIC CHARGE     0.188439

              1           2           3
   1     3.0356E-01  4.6259E-18 -1.6159E-18
   2    -1.6046E-18  3.0356E-01 -1.6248E-18
   3     5.9659E-20 -7.2280E-20 -4.1797E-02

 ATOM   3 LI DYNAMIC CHARGE     0.188439

              1           2           3
   1     3.0356E-01  4.6259E-18  6.9704E-19
   2     1.6046E-18  3.0356E-01  1.0465E-18
   3    -1.2621E-20 -7.2280E-20 -4.1797E-02

 ATOM   4 LI DYNAMIC CHARGE     0.218295

              1           2           3
   1     2.0520E-01 -2.3130E-18 -3.6532E-19
   2    -1.2936E-18  2.0520E-01  2.6680E-19
   3    -9.3427E-21  4.5175E-21  2.4449E-01

 ATOM   5 LI DYNAMIC CHARGE     0.218295

              1           2           3
   1     2.0520E-01 -2.3130E-18 -3.6532E-19
   2     1.2936E-18  2.0520E-01 -2.6680E-19
   3    -3.0764E-22 -4.5175E-21  2.4449E-01

 ATOM   6 GE DYNAMIC CHARGE    -0.617170

              1           2           3
   1    -7.2791E-01  0.0000E+00 -3.1347E-19
   2    -1.7682E-18 -7.2791E-01  9.1065E-20
   3     5.3102E-20 -7.2280E-20 -3.9570E-01

 ATOM   7 GE DYNAMIC CHARGE    -0.617170

              1           2           3
   1    -7.2791E-01 -9.2519E-18 -3.1347E-19
   2     1.7682E-18 -7.2791E-01  1.9806E-19
   3    -1.1078E-21  0.0000E+00 -3.9570E-01

 +++ SYMMETRY ADAPTION OF VIBRATIONAL MODES +++

 SYMMETRY INFORMATION:
 K-LITTLE GROUP: CLASS TABLE, CHARACTER TABLE.
 IRREP-(DIMENSION, NO. IRREDUCIBLE SETS)
 [WARNINGS: (1) ONLY ACTIVE IRREPS ARE GENERATED AND LISTED.
            (2) ONLY RELEVANT CLASSES ARE CONSIDERED IN THE CHARACTER TABLE
            (3) SYMBOLS MAY NOT FULLY COINCIDE WITH THOSE FROM TEXT BOOKS.]

 (P, D, RP, RD, STAND FOR PAIRING, DOUBLING, REAL PAIRING AND REAL DOUBLING 
 OF THE IRREPS (SEE MANUAL))

 CLASS  | GROUP OPERATORS (SEE SYMMOPS KEYWORD)
 --------------------------------------------------------------------
 C3     |   2;   3;
 C2     |   4;   5;   6;
 I      |   7;
 S6     |   8;   9;
 SGD    |  10;  11;  12;

 IRREP/CLA      E     C3     C2      I     S6    SGD
 ---------------------------------------------------
  MULTIP |      1      2      3      1      2      3
 ---------------------------------------------------
    A1g  |   1.00   1.00   1.00   1.00   1.00   1.00
    Eg   |   2.00  -1.00   0.00   2.00  -1.00   0.00
    A2u  |   1.00   1.00  -1.00  -1.00  -1.00   1.00
    Eu   |   2.00  -1.00   0.00  -2.00   1.00   0.00

 A1g-(1,   3); Eg -(2,   3);
 A2u-(1,   4); Eu -(2,   4);

 BORN CHARGE VECTOR IN THE BASIS OF NORMAL MODES (UNITS OF e*M_E**(-1/2) ).
 e AND M_E ARE UNITS OF ELECTRON CHARGE AND MASS, RESPECTIVELY.

 MODE         X              Y              Z
   1    0.21071E-35   -0.66933E-36    0.45966E-18
   2    0.84075E-35    0.20949E-19   -0.48055E-36
   3   -0.53912E-19    0.79166E-37    0.26791E-36
   4   -0.20041E-19    0.64613E-20   -0.17224E-21
   5   -0.17378E-19   -0.58893E-19    0.14576E-21
   6    0.16238E-20    0.39841E-02    0.16664E-20
   7    0.39841E-02    0.14962E-36   -0.71170E-21
   8   -0.10457E-19    0.54554E-21   -0.31253E-02
   9   -0.21614E-20   -0.19961E-20   -0.36596E-19
  10    0.63399E-19    0.52855E-02   -0.48693E-21
  11    0.52855E-02   -0.49262E-36    0.10855E-21
  12   -0.12940E-19   -0.13607E-19   -0.12227E-19
  13    0.17815E-19    0.34170E-20    0.29995E-03
  14   -0.62232E-19   -0.13633E-19   -0.10914E-21
  15    0.35319E-20   -0.23270E-19    0.26973E-22
  16   -0.46386E-19   -0.26563E-03   -0.12243E-20
  17   -0.26563E-03   -0.35339E-36    0.45448E-21
  18    0.77844E-19    0.21979E-19   -0.42044E-21
  19    0.17757E-20    0.13761E-18   -0.24544E-22
  20    0.60854E-20    0.10050E-19   -0.82051E-19
  21   -0.58165E-20   -0.28186E-20   -0.37064E-02

 HHHHHHHHHHHHHHHHHHHHHHHHHHHHHHHHHHHHHHHHHHHHHHHHHHHHHHHHHHHHHHHHHHHHHHHHHHHHHH
 VIBRATIONAL CONTRIBUTIONS TO THE STATIC DIELECTRIC TENSOR (OSCILLATOR
 STRENGTHS) ARE PURE NUMBERS. THEY ARE COMPUTED FOR EACH nth MODE AS:

   f_(n,ij) = 1 / (4 * pi * eps0) * 4 * pi / V * Z_(n,i) * Z_(n,j) / nu_n**2

 WHERE:
  1/(4*pi*eps0)  1 A.U. [M*L**3*T**(-4)*C**(-2)]
  V              CELL VOLUME (BOHR**3) [L**3]
  Z_(n,i)        ith COMPONENT OF BORN CHARGE VECTOR IN THE BASIS
                 OF NORMAL MODES ( e*M_E**(-1/2) ) [C*T*M**(-1/2)]
  nu_n           FREQUENCY (HARTREE) [T**(-1)]
  e, M_E         UNITS OF ELECTRON CHARGE AND MASS, RESPECTIVELY
  M, L, T, C     MASS, LENGTH, TIME, CURRENT, RESPECTIVELY

 HHHHHHHHHHHHHHHHHHHHHHHHHHHHHHHHHHHHHHHHHHHHHHHHHHHHHHHHHHHHHHHHHHHHHHHHHHHHHH

 MODE      CARTESIAN AXES SYSTEM

   6       0.00000    0.00000    0.00000
           0.00000    0.41555    0.00000
           0.00000    0.00000    0.00000

   7       0.41555    0.00000   -0.00000
           0.00000    0.00000   -0.00000
          -0.00000   -0.00000    0.00000

   8       0.00000   -0.00000    0.00000
          -0.00000    0.00000   -0.00000
           0.00000   -0.00000    0.25493

  10       0.00000    0.00000   -0.00000
           0.00000    0.30947   -0.00000
          -0.00000   -0.00000    0.00000

  11       0.30947   -0.00000    0.00000
          -0.00000    0.00000   -0.00000
           0.00000   -0.00000    0.00000

  13       0.00000    0.00000    0.00000
           0.00000    0.00000    0.00000
           0.00000    0.00000    0.00071

  16       0.00000    0.00000    0.00000
           0.00000    0.00041    0.00000
           0.00000    0.00000    0.00000

  17       0.00041    0.00000   -0.00000
           0.00000    0.00000   -0.00000
          -0.00000   -0.00000    0.00000

  21       0.00000    0.00000    0.00000
           0.00000    0.00000    0.00000
           0.00000    0.00000    0.06177

 SUM TENSOR OF THE VIBRATIONAL CONTRIBUTIONS TO THE STATIC DIELECTRIC     TENSOR

           0.72542    0.00000    0.00000
           0.00000    0.72542    0.00000
           0.00000    0.00000    0.31741

 INTEGRATED IR INTENSITIES, IN UNITS OF KM/MOL, ARE COMPUTED UNDER THE
 HYPOTHESIS OF ISOTROPIC RESPONSE (I.E. POWDER SAMPLE):

   INTENS_n = 1 / (4 * pi * eps0) * pi * N_AV / 3 / c**2 *
                             * d_n * ( Z_(n,x)**2 + Z_(n,y)**2 + Z_(n,z)**2 )
            = 0.17770712E+07 * d_n * ( Z_(n,x)**2 + Z_(n,y)**2 + Z_(n,z)**2 )

 WHERE:
  1/(4*pi*eps0)  1 A.U. [M*L**3*T**(-4)*C**(-2)]
  N_AV           AVOGADRO'S NUMBER [QM**(-1)]
  c              SPEED OF LIGHT [L*T**(-1)]
  d_n            DEGENERACY OF THE MODE
  Z_(n,x)        xth COMPONENT OF BORN CHARGE VECTOR IN THE BASIS
                 OF NORMAL MODES ( e*M_E**(-1/2) ) [C*T*M**(-1/2)]
  M,L,T,C,QM     MASS, LENGTH, TIME, CURRENT, QUANTITY OF MATTER, RESPECTIVELY

 HHHHHHHHHHHHHHHHHHHHHHHHHHHHHHHHHHHHHHHHHHHHHHHHHHHHHHHHHHHHHHHHHHHHHHHHHHHHHH
 EIGENVALUES (EIGV) OF THE MASS WEIGHTED HESSIAN MATRIX AND HARMONIC TRANSVERSE
 OPTICAL (TO) FREQUENCIES. IRREP LABELS REFER TO SYMMETRY REPRESENTATION
 ANALYSIS; A AND I INDICATE WHETHER THE MODE IS ACTIVE OR INACTIVE,
 RESPECTIVELY, FOR IR AND RAMAN; INTEGRATED IR INTENSITIES IN BRACKETS.

 CONVERSION FACTORS FOR FREQUENCIES:
      1 CM**(-1) =   0.4556335E-05 HARTREE
      1 THZ      =   0.3335641E+02 CM**(-1)

 HHHHHHHHHHHHHHHHHHHHHHHHHHHHHHHHHHHHHHHHHHHHHHHHHHHHHHHHHHHHHHHHHHHHHHHHHHHHHH

    MODES         EIGV          FREQUENCIES     IRREP  IR   INTENS    RAMAN
             (HARTREE**2)   (CM**-1)     (THZ)             (KM/MOL)
    1-   1   -0.1617E-22      0.0000    0.0000  (A2u)   A (     0.00)   I
    2-   3    0.1487E-22      0.0000    0.0000  (Eu )   A (     0.00)   I
    4-   5    0.1824E-06     93.7370    2.8102  (Eg )   I (     0.00)   A
    6-   7    0.6746E-06    180.2644    5.4042  (Eu )   A (    56.41)   I
    8-   8    0.6767E-06    180.5417    5.4125  (A2u)   A (    17.36)   I
    9-   9    0.1100E-05    230.1789    6.9006  (A1g)   I (     0.00)   A
   10-  11    0.1594E-05    277.1209    8.3079  (Eu )   A (    99.29)   I
   12-  12    0.1752E-05    290.4860    8.7086  (A1g)   I (     0.00)   A
   13-  13    0.2238E-05    328.3001    9.8422  (A2u)   A (     0.16)   I
   14-  15    0.2624E-05    355.5403   10.6588  (Eg )   I (     0.00)   A
   16-  17    0.3066E-05    384.3105   11.5213  (Eu )   A (     0.25)   I
   18-  19    0.3226E-05    394.1870   11.8174  (Eg )   I (     0.00)   A
   20-  20    0.3537E-05    412.7549   12.3741  (A1g)   I (     0.00)   A
   21-  21    0.3928E-05    434.9603   13.0398  (A2u)   A (    24.41)   I

 <RAMAN><RAMAN><RAMAN><RAMAN><RAMAN><RAMAN><RAMAN><RAMAN><RAMAN><RAMAN><RAMAN>
 <RAMAN><RAMAN><RAMAN><RAMAN><RAMAN><RAMAN><RAMAN><RAMAN><RAMAN><RAMAN><RAMAN>

 RAMAN INTENSITIES UNDER PLACZECK APPROXIMATION ARE COMPUTED AS:

  DIRECTIONAL (SINGLE CRYSTAL) :

     I_ij(n)= VOLUME*X(n,i,j)**2

  ISOTROPIC (POLYCRYSTALLINE POWDERS, GASES) :

     G_0(n) = 1/3*(SUM_i X(n,i,i))**2
     G_1(n) = 1/2*SUM_i,j (X(n,i,j)+X(n,j,i))**2
     G_2(n) = 1/3*SUM_i,j (X(n,i,i)-X(n,j,j))**2

     I_par(n)  = VOLUME*( 15*G_0(n) + 6*(G_1(n) + G_2(n)) )
     I_perp(n) = VOLUME*9/2*( G_1(n) + G_2(n) )
     I_tot(n)  = I_par(n) + I_perp(n)

  WHERE X(n,i,j) IS THE i,j-th COMPONENT OF THE RAMAN TENSOR
  IN THE BASIS OF NORMAL MODE n

  ALL VALUES ARE NORMALIZED TO THE MOST INTENSE PEAK


  INTENSITIES HAVE BEEN CALCULATED AT 
  TEMPERATURE                  :    298.0 K
  FREQUENCY OF INCOMING LASER  :    514.0 NM


 REFERENCES TO BE QUOTED FOR RAMAN INTENSITIES:

 L.MASCHIO, B.KIRTMAN, M.RERAT, R.ORLANDO and R.DOVESI, JCP 139, 164101 (2013)
 L.MASCHIO, B.KIRTMAN, M.RERAT, R.ORLANDO and R.DOVESI, JCP 139, 164102 (2013)

  --
  POLYCRYSTALLINE ISOTROPIC INTENSITIES (ARBITRARY UNITS)

    MODES    FREQUENCIES           I_tot     I_par    I_perp
  ----------------------------------------------------------------
    4-   5       93.7370 (Eg )      3.10      1.77      1.33
    9-   9      230.1789 (A1g)      0.00      0.00      0.00
   12-  12      290.4860 (A1g)      0.01      0.01      0.00
   14-  15      355.5403 (Eg )    176.58    100.90     75.68
   18-  19      394.1870 (Eg )   1000.00    571.43    428.57
   20-  20      412.7549 (A1g)      0.00      0.00      0.00

  --
  SINGLE CRYSTAL DIRECTIONAL INTENSITIES (ARBITRARY UNITS)

    MODES    FREQUENCIES          I_xx    I_xy    I_xz    I_yy    I_yz    I_zz
  ----------------------------------------------------------------------------
    4-   5       93.7370 (Eg )    0.00    3.10    0.00    0.00    0.00    0.00
    9-   9      230.1789 (A1g)    0.00    0.00    0.00    0.00    0.00    0.00
   12-  12      290.4860 (A1g)    0.00    0.01    0.00    0.00    0.00    0.00
   14-  15      355.5403 (Eg )    0.00  176.58    0.00    0.00    0.00    0.00
   18-  19      394.1870 (Eg )    0.00 1000.00    0.00    0.00    0.00    0.00
   20-  20      412.7549 (A1g)    0.00    0.00    0.00    0.00    0.00    0.00

 <RAMAN><RAMAN><RAMAN><RAMAN><RAMAN><RAMAN><RAMAN><RAMAN><RAMAN><RAMAN><RAMAN>
 <RAMAN><RAMAN><RAMAN><RAMAN><RAMAN><RAMAN><RAMAN><RAMAN><RAMAN><RAMAN><RAMAN>


 NORMAL MODES NORMALIZED TO CLASSICAL AMPLITUDES (IN BOHR)

 FREQ(CM**-1)      0.00      0.00      0.00     93.74     93.74    180.26

 AT.   1 LI X     0.0000    0.0000    0.0739    0.0000    0.0000    0.0000
            Y     0.0000    0.0739    0.0000    0.0000    0.0000    0.2232
            Z     0.0739    0.0000    0.0000    0.0000    0.0000    0.0000
 AT.   2 LI X     0.0000    0.0000    0.0739   -0.0404    0.0000    0.0000
            Y     0.0000    0.0739    0.0000    0.0000   -0.0404   -0.0590
            Z     0.0739    0.0000    0.0000    0.0000    0.0000    0.0000
 AT.   3 LI X     0.0000    0.0000    0.0739    0.0404    0.0000    0.0000
            Y     0.0000    0.0739    0.0000    0.0000    0.0404   -0.0590
            Z     0.0739    0.0000    0.0000    0.0000    0.0000    0.0000
 AT.   4 LI X     0.0000    0.0000    0.0739    0.0536    0.0000    0.0000
            Y     0.0000    0.0739    0.0000    0.0000    0.0536    0.1271
            Z     0.0739    0.0000    0.0000    0.0000    0.0000    0.0000
 AT.   5 LI X     0.0000    0.0000    0.0739   -0.0536    0.0000    0.0000
            Y     0.0000    0.0739    0.0000    0.0000   -0.0536    0.1271
            Z     0.0739    0.0000    0.0000    0.0000    0.0000    0.0000
 AT.   6 GE X     0.0000    0.0000    0.0739   -0.0909    0.0000    0.0000
            Y     0.0000    0.0739    0.0000    0.0000   -0.0909   -0.0171
            Z     0.0739    0.0000    0.0000    0.0000    0.0000    0.0000
 AT.   7 GE X     0.0000    0.0000    0.0739    0.0909    0.0000    0.0000
            Y     0.0000    0.0739    0.0000    0.0000    0.0909   -0.0171
            Z     0.0739    0.0000    0.0000    0.0000    0.0000    0.0000

 FREQ(CM**-1)    180.26    180.54    230.18    277.12    277.12    290.49

 AT.   1 LI X     0.2232    0.0000    0.0000    0.0000    0.0388    0.0000
            Y     0.0000    0.0000    0.0000    0.0388    0.0000    0.0000
            Z     0.0000   -0.2154    0.0000    0.0000    0.0000    0.0000
 AT.   2 LI X    -0.0590    0.0000    0.0000    0.0000    0.1623    0.0000
            Y     0.0000    0.0000    0.0000    0.1623    0.0000    0.0000
            Z     0.0000   -0.1278    0.0289    0.0000    0.0000    0.1538
 AT.   3 LI X    -0.0590    0.0000    0.0000    0.0000    0.1623    0.0000
            Y     0.0000    0.0000    0.0000    0.1623    0.0000    0.0000
            Z     0.0000   -0.1278   -0.0289    0.0000    0.0000   -0.1538
 AT.   4 LI X     0.1271    0.0000    0.0000    0.0000    0.0149    0.0000
            Y     0.0000    0.0000    0.0000    0.0149    0.0000    0.0000
            Z     0.0000   -0.0333    0.0405    0.0000    0.0000    0.0666
 AT.   5 LI X     0.1271    0.0000    0.0000    0.0000    0.0149    0.0000
            Y     0.0000    0.0000    0.0000    0.0149    0.0000    0.0000
            Z     0.0000   -0.0333   -0.0405    0.0000    0.0000   -0.0666
 AT.   6 GE X    -0.0171    0.0000    0.0000    0.0000   -0.0186    0.0000
            Y     0.0000    0.0000    0.0000   -0.0186    0.0000    0.0000
            Z     0.0000    0.0255    0.0575    0.0000    0.0000   -0.0118
 AT.   7 GE X    -0.0171    0.0000    0.0000    0.0000   -0.0186    0.0000
            Y     0.0000    0.0000    0.0000   -0.0186    0.0000    0.0000
            Z     0.0000    0.0255   -0.0575    0.0000    0.0000    0.0118

 FREQ(CM**-1)    328.30    355.54    355.54    384.31    384.31    394.19

 AT.   1 LI X     0.0000    0.0000    0.0000    0.0000   -0.1360    0.0000
            Y     0.0000    0.0000    0.0000   -0.1360    0.0000    0.0000
            Z     0.1436    0.0000    0.0000    0.0000    0.0000    0.0000
 AT.   2 LI X     0.0000   -0.0259    0.0000    0.0000    0.0006   -0.1441
            Y     0.0000    0.0000   -0.0259    0.0006    0.0000    0.0000
            Z    -0.0763    0.0000    0.0000    0.0000    0.0000    0.0000
 AT.   3 LI X     0.0000    0.0259    0.0000    0.0000    0.0006    0.1441
            Y     0.0000    0.0000    0.0259    0.0006    0.0000    0.0000
            Z    -0.0763    0.0000    0.0000    0.0000    0.0000    0.0000
 AT.   4 LI X     0.0000    0.1501    0.0000    0.0000    0.1135   -0.0279
            Y     0.0000    0.0000    0.1501    0.1135    0.0000    0.0000
            Z    -0.0952    0.0000    0.0000    0.0000    0.0000    0.0000
 AT.   5 LI X     0.0000   -0.1501    0.0000    0.0000    0.1135    0.0279
            Y     0.0000    0.0000   -0.1501    0.1135    0.0000    0.0000
            Z    -0.0952    0.0000    0.0000    0.0000    0.0000    0.0000
 AT.   6 GE X     0.0000    0.0095    0.0000    0.0000   -0.0044    0.0045
            Y     0.0000    0.0000    0.0095   -0.0044    0.0000    0.0000
            Z     0.0095    0.0000    0.0000    0.0000    0.0000    0.0000
 AT.   7 GE X     0.0000   -0.0095    0.0000    0.0000   -0.0044   -0.0045
            Y     0.0000    0.0000   -0.0095   -0.0044    0.0000    0.0000
            Z     0.0095    0.0000    0.0000    0.0000    0.0000    0.0000

 FREQ(CM**-1)    394.19    412.75    434.96

 AT.   1 LI X     0.0000    0.0000    0.0000
            Y     0.0000    0.0000    0.0000
            Z     0.0000    0.0000   -0.0558
 AT.   2 LI X     0.0000    0.0000    0.0000
            Y    -0.1441    0.0000    0.0000
            Z     0.0000   -0.0607    0.0839
 AT.   3 LI X     0.0000    0.0000    0.0000
            Y     0.1441    0.0000    0.0000
            Z     0.0000    0.0607    0.0839
 AT.   4 LI X     0.0000    0.0000    0.0000
            Y    -0.0279    0.0000    0.0000
            Z     0.0000    0.1295   -0.1044
 AT.   5 LI X     0.0000    0.0000    0.0000
            Y     0.0279    0.0000    0.0000
            Z     0.0000   -0.1295   -0.1044
 AT.   6 GE X     0.0000    0.0000    0.0000
            Y     0.0045    0.0000    0.0000
            Z     0.0000   -0.0058    0.0046
 AT.   7 GE X     0.0000    0.0000    0.0000
            Y    -0.0045    0.0000    0.0000
            Z     0.0000    0.0058    0.0046

 *******************************************************************************

 VIBRATIONAL TEMPERATURES (K) [MODE NUMBER;IRREP]

 TO MODES
   134.9 [   4;Eg ]   134.9 [   5;Eg ]   259.4 [   6;Eu ]   259.4 [   7;Eu ]
   259.8 [   8;A2u]   331.2 [   9;A1g]   398.7 [  10;Eu ]   398.7 [  11;Eu ]
   417.9 [  12;A1g]   472.4 [  13;A2u]   511.5 [  14;Eg ]   511.5 [  15;Eg ]
   552.9 [  16;Eu ]   552.9 [  17;Eu ]   567.1 [  18;Eg ]   567.1 [  19;Eg ]
   593.9 [  20;A1g]   625.8 [  21;A2u]

 *******************************************************************************

 HARMONIC VIBRATIONAL CONTRIBUTIONS TO THERMODYNAMIC FUNCTIONS AT GIVEN
 TEMPERATURE AND PRESSURE:

 (EL = ELECTRONIC ENERGY
  E0 = ZERO-POINT ENERGY
  ET = THERMAL CONTRIBUTION TO THE VIBRATIONAL ENERGY
  PV = PRESSURE * VOLUME
  TS = TEMPERATURE * ENTROPY)

                          AU/CELL             EV/CELL                 KJ/MOL
 EL            :   -4191.277909573276 -114050.470133348936   -11004198.60081181
 E0            :       0.011954780611       0.325306118665          31.38727207


 *******************************************************************************

 THERMODYNAMIC FUNCTIONS WITH VIBRATIONAL CONTRIBUTIONS

 AT (T =  298.15 K, P =   0.10132500E+00 MPA):

                          AU/CELL             EV/CELL                 KJ/MOL
 ET            :       0.008066446388       0.219499165336          21.17845201
 PV            :       0.000002450495       0.000066681370           0.00643377
 TS            :       0.014211487350       0.386714230963          37.31225478
 ET+PV-TS      :      -0.006142590467      -0.167148384257         -16.12736900
 EL+E0+ET+PV-TS:   -4191.272097383132 -114050.311975614532   -11004183.34090874

 OTHER THERMODYNAMIC FUNCTIONS:

                      mHARTREE/(CELL*K)     mEV/(CELL*K)              J/(MOL*K)
 ENTROPY       :       0.047665562133       1.297045886176         125.14591574
 HEAT CAPACITY :       0.047776421345       1.300062518700         125.43697656

 *******************************************************************************
 TTTTTTTTTTTTTTTTTTTTTTTTTTTTTT END         TELAPSE     7442.86 TCPU     7120.38
 EEEEEEEEEE TERMINATION  DATE 25 07 2023 TIME 19:21:01.0
