         256 PROCESSORS WORKING

         
 *******************************************************************************
 *                                                                             *
 *                               CRYSTAL23                                     *
 *                      public : 1.0.1 - October 2022                          *
 *                       HTTP://WWW.CRYSTAL.UNITO.IT                           *
 *                                                                             *
 *                              MAIN AUTHORS                                   *
 *                                                                             *
 *  R. DOVESI(1,11), V.R. SAUNDERS(2), C. ROETTI(1,11), R. ORLANDO(1,11),      *
 *  C.M. ZICOVICH-WILSON(1,3), F. PASCALE(4), B. CIVALLERI(1,11),              *
 *  K. DOLL(5), N.M. HARRISON(6), I.J. BUSH(7), Ph. D'ARCO(8),                 *
 *  M. LLUNELL(9), M. CAUSA'(10), Y. NOEL(8), L. MASCHIO(1,11), A. ERBA(1,11)  *
 *  M. RE'RAT(14), S. CASASSA(1,11), B.G. SEARLE(2), J.K. DESMARAIS(1)         *
 *                                                                             *
 *        CONTRIBUTIONS TO THE CODE HAVE ALSO BEEN GIVEN BY                    *
 *                                                                             *
 *  M. FERRABONE(1,11), M. DE LA PIERRE(1,11), M. FERRERO(1,11),               *
 *  J. BAIMA(1,11), E. ALBANESE(1,11), M.F. PEINTINGER(12), R. BAST(13),       *
 *  B. KIRTMAN(15), V. LACIVITA(1,11), R. DEMICHELIS(1,16)                     *
 *  G. BRANDEBURG(17), S. SALUSTRO(1,11), G. SANSONE(1,11)                     *
 *  M.T. RUGGIERO(18), L.E. DAGA(1), L. DONA'(1), A. COSSARD(1)                *
 *                                                                             *
 * (1) THEORETICAL CHEMISTRY GROUP - UNIVERSITA' DI TORINO - TORINO (ITALY)    *
 * (2) SCIENTIFIC COMPUTING DEPARTMENT - STFC DARESBURY (UK)                   *
 * (3) UNIVERSIDAD AUTONOMA DEL ESTADO DE MORELOS - CUERNAVACA (MEXICO)        *
 * (4) UNIVERSITE' DE LORRAINE - NANCY (FRANCE)                                *
 * (5) UNIVERSITAET STUTTGART- STUTTGART (GERMANY)                             *
 * (6) IMPERIAL COLLEGE - LONDON (UK)                                          *
 * (7) SCIENTIFIC COMPUTING DEPARTMENT - STFC RAL (UK)                         *
 * (8) UPMC - SORBONNE UNIVERSITES - PARIS (FRANCE)                            *
 * (9) UNIVERSIDAD DE BARCELONA - BARCELONA (SPAIN)                            *
 *(10) UNIVERSITA' DI NAPOLI "FEDERICO II" - NAPOLI (ITALY)                    *
 *(11) NIS - NANOSTRUCTURED INTERFACES AND SURFACES - TORINO (ITALY)           *
 *(12) MPI FUER CHEMISCHE ENERGIEKONVERSION - MUELHEIM AN DER RUHR (GERMANY)   *
 *(13) UNIVERSITY OF TROMSO - TROMSO (NORWAY)                                  *
 *(14) UNIVERSITE' DE PAU ET DES PAYS DE L'ADOUR - PAU (FRANCE)                *
 *(15) UNIVERSITY OF CALIFORNIA SANTA BARBARA - SANTA BARBARA (USA)            *
 *(16) CURTIN UNIVERSITY - PERTH (AUSTRALIA)                                   *
 *(17) UNIVERSITY COLLEGE LONDON - LONDON (UK)                                 *
 *(18) UNIVERSITY OF VERMONT - BURLINGTON (USA)                                *
 *                                                                             *
 *******************************************************************************
 EEEEEEEEEE STARTING  DATE 02 08 2023 TIME 16:32:43.0
 ICSD_CollCode134060.cif                                                         

 CRYSTAL CALCULATION
 (INPUT ACCORDING TO THE INTERNATIONAL TABLES FOR X-RAY CRYSTALLOGRAPHY)
 CRYSTAL FAMILY                       :  HEXAGONAL   
 CRYSTAL CLASS  (GROTH - 1921)        :  DITRIGONAL DIPYRAMIDAL               

 SPACE GROUP (NONCENTROSYMMETRIC)     :  P -6 2 M        

 LATTICE PARAMETERS  (ANGSTROMS AND DEGREES) - CONVENTIONAL CELL
        A           B           C        ALPHA        BETA       GAMMA
     6.19270     6.19270     4.46042    90.00000    90.00000   120.00000


 NUMBER OF IRREDUCIBLE ATOMS IN THE CONVENTIONAL CELL:    4

 INPUT COORDINATES

 ATOM AT. N.              COORDINATES
   1  11     6.995100000000E-01  6.995100000000E-01  0.000000000000E+00
   2  11     3.657400000000E-01  3.657400000000E-01  5.000000000000E-01
   3   8     0.000000000000E+00  0.000000000000E+00  3.288000000000E-01
   4   8     6.666666666670E-01  3.333333333330E-01  8.254700000000E-01

 *******************************************************************************

 << INFORMATION >>: FROM NOW ON, ALL COORDINATES REFER TO THE PRIMITIVE CELL

 *******************************************************************************

 LATTICE PARAMETERS  (ANGSTROMS AND DEGREES) - PRIMITIVE CELL
       A          B          C        ALPHA      BETA     GAMMA        VOLUME
    6.19270    6.19270    4.46042    90.00000  90.00000 120.00000    148.137997

 COORDINATES OF THE EQUIVALENT ATOMS (FRACTIONAL UNITS)

 N. ATOM EQUIV AT. N.          X                  Y                  Z

   1   1   1   11 NA   -3.00490000000E-01 -3.00490000000E-01  0.00000000000E+00
   2   1   2   11 NA    3.00490000000E-01  0.00000000000E+00  0.00000000000E+00
   3   1   3   11 NA    0.00000000000E+00  3.00490000000E-01  0.00000000000E+00

   4   2   1   11 NA    3.65740000000E-01  3.65740000000E-01 -5.00000000000E-01
   5   2   2   11 NA   -3.65740000000E-01  0.00000000000E+00 -5.00000000000E-01
   6   2   3   11 NA    0.00000000000E+00 -3.65740000000E-01 -5.00000000000E-01

   7   3   1    8 O     0.00000000000E+00  0.00000000000E+00  3.28800000000E-01
   8   3   2    8 O     0.00000000000E+00  0.00000000000E+00 -3.28800000000E-01

   9   4   1    8 O    -3.33333333333E-01  3.33333333333E-01 -1.74530000000E-01
  10   4   2    8 O     3.33333333334E-01 -3.33333333333E-01  1.74530000000E-01
  11   4   3    8 O     3.33333333333E-01 -3.33333333333E-01 -1.74530000000E-01
  12   4   4    8 O    -3.33333333333E-01  3.33333333333E-01  1.74530000000E-01

 NUMBER OF SYMMETRY OPERATORS         :   12
 *******************************************************************************
 * GEOMETRY EDITING - INPUT COORDINATES ARE GIVEN IN ANGSTROM         
 *******************************************************************************

 GEOMETRY NOW FULLY CONSISTENT WITH THE GROUP

 FRQFRQFRQFRQFRQFRQFRQFRQFRQFRQFRQFRQFRQFRQFRQFRQFRQFRQFRQFRQFRQFRQFRQFRQFRQFRQ

                       FREQUENCY CALCULATION

 OPTIMIZATION PERFORMED BEFORE FREQUENCIES CALCULATION
 *******************************************************************************
 INFORMATION **** NEW DEFAULT **** FINALRUN 4 FOR GEOMETRY OPTIMIZATIONS
 INFORMATION **** NEW DEFAULT **** OPTGEOM OPTIMIZES ATOMIC COORDINATES ONLY
 INFORMATION **** NEW DEFAULT **** TOL. ON ATOMIC DISP TO REDEFINE REF. GEOMETRY: 0.8 Angs
 INFORMATION **** NEW DEFAULT **** N POINTS TO REDEFINE REF. GEOMETRY: N OF OPT DEGS OF FREEDOM
 INFORMATION **** NEW DEFAULT **** TOL. ON ENERGY TO REDEFINE REF. GEOMETRY: 10**-3*(5*N. ATOMS)
 INFORMATION **** FULLOPTG **** FULL OPTIMIZATION (ATOMS AND CELL PARAMETERS)

 IMPORTANT INFORMATION:
 THE COORDINATE SYSTEM ADOPTED IN THE OPTIMIZATION IS NOT IN
 GENERAL HOMOGENEOUS UNITS. FOR THIS REASON THE GRADIENT AND 
 HESSIAN MATRIX IN TERMS OF THIS SYSTEM ARE GIVEN WITHOUT
 UNITS. FOR MORE DETAILS SEE THE MANUAL.

 *******************************************************************************
 COMBINED CELL/ATOM OPTIMIZATION CONTROL

 INITIAL TRUST RADIUS         0.50000 MAXIMUM TRUST RADIUS               0.50000
 MAXIMUM GRADIENT COMPONENT   0.00005 MAXIMUM DISPLACEMENT COMPONENT     0.00018
 R.M.S. OF GRADIENT COMPONENT 0.00003 R.M.S. OF DISPLACEMENT COMPONENTS  0.00012
 THRESHOLD ON ENERGY CHANGE 0.100E-06 EXTRAPOLATING POLYNOMIAL ORDER           2
 MAXIMUM ALLOWED NUMBER OF STEPS   -1 SORTING OF ENERGY POINTS:               NO
 ANALYTICAL  GRADIENT                 HESSIAN UPDATING                      BFGS
 STEP SIZE NUMERICAL GRADIENT 0.00100
 INITIAL HESSIAN MATRIX: SCHLEGEL MODEL 2
 *******************************************************************************

 INFORMATION **** INPFREQ **** IR INTENSITIES EVALUATED THROUGH CPHF APPROACH
 INFORMATION **** INPFREQ **** NEW DEFAULT - IMPOSING ECKART CONDITIONS TO THE HESSIAN

 GCALCO - MAX INDICES DIRECT LATTICE VECTOR    14    14    16
 NO.OF VECTORS CREATED 6999 STARS  391 RMAX   118.59770 BOHR

 GEOMETRY FOR WAVE FUNCTION - DIMENSIONALITY OF THE SYSTEM    3
 (NON PERIODIC DIRECTION: LATTICE PARAMETER FORMALLY SET TO 500)
 *******************************************************************************
 LATTICE PARAMETERS (ANGSTROMS AND DEGREES) - BOHR = 0.5291772083 ANGSTROM
 PRIMITIVE CELL - CENTRING CODE 1/0 VOLUME=   148.137997 - DENSITY  2.622 g/cm^3
         A              B              C           ALPHA      BETA       GAMMA 
     6.19270000     6.19270000     4.46042000    90.000000  90.000000 120.000000
 *******************************************************************************
 ATOMS IN THE ASYMMETRIC UNIT    4 - ATOMS IN THE UNIT CELL:   12
     ATOM                 X/A                 Y/B                 Z/C    
 *******************************************************************************
      1 T  11 NA   -3.004900000000E-01 -3.004900000000E-01  0.000000000000E+00
      2 F  11 NA    3.004900000000E-01 -3.697565880594E-18  0.000000000000E+00
      3 F  11 NA    6.281053603740E-18  3.004900000000E-01  0.000000000000E+00
      4 T  11 NA    3.657400000000E-01  3.657400000000E-01 -5.000000000000E-01
      5 F  11 NA   -3.657400000000E-01 -4.207401514183E-17 -5.000000000000E-01
      6 F  11 NA    3.564121217607E-17 -3.657400000000E-01 -5.000000000000E-01
      7 T   8 O     0.000000000000E+00  0.000000000000E+00  3.288000000000E-01
      8 F   8 O     0.000000000000E+00  0.000000000000E+00 -3.288000000000E-01
      9 T   8 O    -3.333333333333E-01  3.333333333333E-01 -1.745300000000E-01
     10 F   8 O     3.333333333333E-01 -3.333333333333E-01  1.745300000000E-01
     11 F   8 O     3.333333333333E-01 -3.333333333333E-01 -1.745300000000E-01
     12 F   8 O    -3.333333333333E-01  3.333333333333E-01  1.745300000000E-01

 T = ATOM BELONGING TO THE ASYMMETRIC UNIT

 ****   12 SYMMOPS - TRANSLATORS IN FRACTIONAL UNITS
 **** MATRICES AND TRANSLATORS IN THE CRYSTALLOGRAPHIC REFERENCE FRAME
   V INV                    ROTATION MATRICES                   TRANSLATORS
   1   1  1.00  0.00  0.00  0.00  1.00  0.00  0.00  0.00  1.00  0.00  0.00  0.00
   2   3 -0.00 -1.00  0.00  1.00 -1.00  0.00  0.00  0.00  1.00  0.00  0.00  0.00
   3   2 -1.00  1.00  0.00 -1.00  0.00  0.00  0.00  0.00  1.00  0.00  0.00  0.00
   4   4  1.00 -1.00  0.00  0.00 -1.00  0.00  0.00  0.00 -1.00  0.00  0.00  0.00
   5   5 -1.00  0.00  0.00 -1.00  1.00  0.00  0.00  0.00 -1.00  0.00  0.00  0.00
   6   6  0.00  1.00  0.00  1.00  0.00  0.00  0.00  0.00 -1.00  0.00  0.00  0.00
   7   7  0.00  1.00  0.00  1.00  0.00  0.00  0.00  0.00  1.00  0.00  0.00  0.00
   8   8 -1.00  0.00  0.00 -1.00  1.00  0.00  0.00  0.00  1.00  0.00  0.00  0.00
   9   9  1.00 -1.00  0.00  0.00 -1.00  0.00  0.00  0.00  1.00  0.00  0.00  0.00
  10  10  1.00  0.00  0.00  0.00  1.00  0.00  0.00  0.00 -1.00  0.00  0.00  0.00
  11  12 -1.00  1.00  0.00 -1.00  0.00  0.00  0.00  0.00 -1.00  0.00  0.00  0.00
  12  11 -0.00 -1.00  0.00  1.00 -1.00  0.00  0.00  0.00 -1.00  0.00  0.00  0.00

 DIRECT LATTICE VECTORS CARTESIAN COMPONENTS (ANGSTROM)
          X                    Y                    Z
   0.536303551802E+01  -0.309635000000E+01   0.000000000000E+00
   0.000000000000E+00   0.619270000000E+01   0.000000000000E+00
   0.000000000000E+00   0.000000000000E+00   0.446042000000E+01


 CARTESIAN COORDINATES - PRIMITIVE CELL
 *******************************************************************************
 *      ATOM          X(ANGSTROM)         Y(ANGSTROM)         Z(ANGSTROM)
 *******************************************************************************
    1    11 NA   -1.611538542809E+00 -9.304222115000E-01  0.000000000000E+00
    2    11 NA    1.611538542809E+00 -9.304222115000E-01  0.000000000000E+00
    3    11 NA    3.368551356742E-17  1.860844423000E+00  0.000000000000E+00
    4    11 NA    1.961476610359E+00  1.132459049000E+00  2.230210000000E+00
    5    11 NA   -1.961476610359E+00  1.132459049000E+00  2.230210000000E+00
    6    11 NA    1.911450868054E-16 -2.264918098000E+00  2.230210000000E+00
    7     8 O     0.000000000000E+00  0.000000000000E+00  1.466586096000E+00
    8     8 O     0.000000000000E+00  0.000000000000E+00 -1.466586096000E+00
    9     8 O    -1.787678506005E+00 -3.096350000000E+00 -7.784771026000E-01
   10     8 O    -3.575357012011E+00 -7.296077692528E-16  7.784771026000E-01
   11     8 O    -3.575357012011E+00  3.016839494367E-16 -7.784771026000E-01
   12     8 O    -1.787678506005E+00 -3.096350000000E+00  7.784771026000E-01

 *******************************************************************************
 LOCAL ATOMIC FUNCTIONS BASIS SET
 *******************************************************************************
   ATOM   X(AU)   Y(AU)   Z(AU)  N. TYPE  EXPONENT  S COEF   P COEF   D/F/G COEF
 *******************************************************************************
   1 NA  -3.045  -1.758   0.000
                                  1 S  
                                         2.604E+04 6.181E-04 0.000E+00 0.000E+00
                                         3.906E+03 4.775E-03 0.000E+00 0.000E+00
                                         8.890E+02 2.447E-02 0.000E+00 0.000E+00
                                         2.515E+02 9.476E-02 0.000E+00 0.000E+00
                                         8.165E+01 2.687E-01 0.000E+00 0.000E+00
                                         2.890E+01 4.793E-01 0.000E+00 0.000E+00
                                         1.063E+01 3.325E-01 0.000E+00 0.000E+00
                                  2 S  
                                         5.377E+01 1.953E-02 0.000E+00 0.000E+00
                                         1.631E+01 9.265E-02 0.000E+00 0.000E+00
                                         2.373E+00-3.994E-01 0.000E+00 0.000E+00
                                  3 S  
                                         9.573E-01 1.643E+00 0.000E+00 0.000E+00
                                         4.081E-01 5.569E-01 0.000E+00 0.000E+00
                                  4 S  
                                         4.246E-01 1.000E+00 0.000E+00 0.000E+00
                                  5 S  
                                         1.206E-01 1.000E+00 0.000E+00 0.000E+00
                           6-     8 P  
                                         1.381E+02 0.000E+00 5.795E-03 0.000E+00
                                         3.223E+01 0.000E+00 4.162E-02 0.000E+00
                                         9.982E+00 0.000E+00 1.628E-01 0.000E+00
                                         3.482E+00 0.000E+00 3.601E-01 0.000E+00
                                         1.230E+00 0.000E+00 4.486E-01 0.000E+00
                           9-    11 P  
                                         4.009E-01 0.000E+00 1.000E+00 0.000E+00
                          12-    14 P  
                                         1.207E-01 0.000E+00 1.000E+00 0.000E+00
                          15-    19 D  
                                         3.053E-01 0.000E+00 0.000E+00 1.000E+00
   2 NA   3.045  -1.758   0.000
   3 NA   0.000   3.516   0.000
   4 NA   3.707   2.140   4.214
   5 NA  -3.707   2.140   4.214
   6 NA   0.000  -4.280   4.214
   7 O    0.000   0.000   2.771
                                115 S  
                                         2.703E+04 2.173E-04 0.000E+00 0.000E+00
                                         4.052E+03 1.684E-03 0.000E+00 0.000E+00
                                         9.223E+02 8.740E-03 0.000E+00 0.000E+00
                                         2.612E+02 3.524E-02 0.000E+00 0.000E+00
                                         8.535E+01 1.115E-01 0.000E+00 0.000E+00
                                         3.104E+01 2.559E-01 0.000E+00 0.000E+00
                                116 S  
                                         1.226E+01 3.977E-01 0.000E+00 0.000E+00
                                         4.999E+00 2.463E-01 0.000E+00 0.000E+00
                                117 S  
                                         1.099E+00 1.000E+00 0.000E+00 0.000E+00
                                118 S  
                                         3.566E-01 1.000E+00 0.000E+00 0.000E+00
                         119-   121 P  
                                         6.327E+01 0.000E+00 6.069E-03 0.000E+00
                                         1.463E+01 0.000E+00 4.191E-02 0.000E+00
                                         4.450E+00 0.000E+00 1.615E-01 0.000E+00
                                         1.528E+00 0.000E+00 3.571E-01 0.000E+00
                         122-   124 P  
                                         5.490E-01 0.000E+00 1.000E+00 0.000E+00
                         125-   127 P  
                                         1.859E-01 0.000E+00 1.000E+00 0.000E+00
                         128-   132 D  
                                         4.535E-01 0.000E+00 0.000E+00 1.000E+00
   8 O    0.000   0.000  -2.771
   9 O   -3.378  -5.851  -1.471
  10 O   -6.756  -0.000   1.471
  11 O   -6.756   0.000  -1.471
  12 O   -3.378  -5.851   1.471
 INFORMATION **** SET_MPP **** PCRYSTAL CALCULATION
 INFORMATION **** READM2 **** NEW DEFAULT: FOCK/KS MATRIX MIXING SET TO 30 %
 INFORMATION **** READM2 **** NEW DEFAULT: FULL DIRECT SCF MODE
 INFORMATION **** READM2 **** NEW DEFAULT: COULOMB BIPOLAR BUFFER SET TO 32 Mb
 INFORMATION **** READM2 **** NEW DEFAULT: EXCHANGE BIPOLAR BUFFER SET TO 32 Mb

 *******************************************************************************
 NEW DEFAULT: DFT INTEGRATION GRID INCREASED TO XLGRID
 NEW DEFAULT: DIIS ACCELERATOR ACTIVE
 USE KEYWORD NODIIS TO TURN IT OFF
 *******************************************************************************

 INFORMATION **** RDDFTP **** MAX N. OF POINTS ALLOWED IN A BATCH FOR NUMERICAL INTEGRATION         200
 INFORMATION **** TOLINTEG **** COULOMB AND EXCHANGE SERIES TOLERANCES MODIFIED
 INFORMATION **** TOLDEE **** SCF TOL ON TOTAL ENERGY SET TO          11
 INFORMATION **** EXCHSIZE **** EXCHANGE BIPOLAR BUFFER SIZE SET TO    12012489
 INFORMATION **** MAXCYCLE **** MAX NUMBER OF SCF CYCLES SET TO         150
 *******************************************************************************
 N. OF ATOMS PER CELL        12  COULOMB OVERLAP TOL         (T1) 10**   -7
 NUMBER OF SHELLS           102  COULOMB PENETRATION TOL     (T2) 10**   -7
 NUMBER OF AO               222  EXCHANGE OVERLAP TOL        (T3) 10**   -7
 N. OF ELECTRONS PER CELL   114  EXCHANGE PSEUDO OVP (F(G))  (T4) 10**   -9
 CORE ELECTRONS PER CELL     72  EXCHANGE PSEUDO OVP (P(G))  (T5) 10**  -30
 N. OF SYMMETRY OPERATORS    12  POLE ORDER IN MONO ZONE                  4
 *******************************************************************************
 TYPE OF CALCULATION :  RESTRICTED CLOSED SHELL
 KOHN-SHAM HAMILTONIAN

 (EXCHANGE)[CORRELATION] FUNCTIONAL:(PERDEW-BURKE-ERNZERHOF)[PERDEW-BURKE-ERNZERHOF]


 HYBRID EXCHANGE - PERCENTAGE OF FOCK EXCHANGE    25.0000

 CAPPA:IS1  8;IS2  8;IS3  8; K PTS MONK NET  50; SYMMOPS:K SPACE  24;G SPACE  12

 *******************************************************************************
 MAX NUMBER OF SCF CYCLES     150  CONVERGENCE ON DELTAP        10**-21
 WEIGHT OF F(I) IN F(I+1)      30% CONVERGENCE ON ENERGY        10**-11
 SHRINK. FACT.(MONKH.)    8  8  8  NUMBER OF K POINTS IN THE IBZ     50
 SHRINKING FACTOR(GILAT NET)    8  NUMBER OF K POINTS(GILAT NET)     50
 *******************************************************************************
 *** K POINTS COORDINATES (OBLIQUE COORDINATES IN UNITS OF IS =  8)
   1-R(  0  0  0)   2-C(  1  0  0)   3-C(  2  0  0)   4-C(  3  0  0)
   5-R(  4  0  0)   6-C(  1  1  0)   7-C(  2  1  0)   8-C(  3  1  0)
   9-C(  2  2  0)  10-C(  3  2  0)  11-C(  0  0  1)  12-C(  1  0  1)
  13-C(  2  0  1)  14-C(  3  0  1)  15-C(  4  0  1)  16-C(  1  1  1)
  17-C(  2  1  1)  18-C(  3  1  1)  19-C(  2  2  1)  20-C(  3  2  1)
  21-C(  0  0  2)  22-C(  1  0  2)  23-C(  2  0  2)  24-C(  3  0  2)
  25-C(  4  0  2)  26-C(  1  1  2)  27-C(  2  1  2)  28-C(  3  1  2)
  29-C(  2  2  2)  30-C(  3  2  2)  31-C(  0  0  3)  32-C(  1  0  3)
  33-C(  2  0  3)  34-C(  3  0  3)  35-C(  4  0  3)  36-C(  1  1  3)
  37-C(  2  1  3)  38-C(  3  1  3)  39-C(  2  2  3)  40-C(  3  2  3)
  41-R(  0  0  4)  42-C(  1  0  4)  43-C(  2  0  4)  44-C(  3  0  4)
  45-R(  4  0  4)  46-C(  1  1  4)  47-C(  2  1  4)  48-C(  3  1  4)
  49-C(  2  2  4)  50-C(  3  2  4)

 DIRECT LATTICE VECTORS COMPON. (A.U.)     RECIP. LATTICE VECTORS COMPON. (A.U.) 
        X            Y            Z              X            Y            Z
   10.1346684   -5.8512535    0.0000000      0.6199695    0.0000000    0.0000000
    0.0000000   11.7025070    0.0000000      0.3099848    0.5369093   -0.0000000
    0.0000000    0.0000000    8.4289722     -0.0000000    0.0000000    0.7454272

 DISK SPACE FOR EIGENVECTORS (FTN 10)     4731264 REALS

 SYMMETRY ADAPTION OF THE BLOCH FUNCTIONS ENABLED
 TTTTTTTTTTTTTTTTTTTTTTTTTTTTTT gordsh1     TELAPSE        4.07 TCPU        2.13

 MATRIX SIZE: P(G) 1741200, F(G)  141861, P(G) IRR   90532, F(G) IRR   17129
 MAX G-VECTOR INDEX FOR 1- AND 2-ELECTRON INTEGRALS 297

 TTTTTTTTTTTTTTTTTTTTTTTTTTTTTT INPUT       TELAPSE        4.08 TCPU        2.14

 NEIGHBORS OF THE NON-EQUIVALENT ATOMS

 N = NUMBER OF NEIGHBORS AT DISTANCE R
    ATOM  N     R/ANG      R/AU   NEIGHBORS (ATOM LABELS AND CELL INDICES)
   1 NA   4     2.3083     4.3621    9 O    0 0 0   10 O    0 0 0   11 O    0 0 0
                                    12 O    0 0 0
   1 NA   2     2.3693     4.4773    7 O    0 0 0    8 O    0 0 0
   1 NA   2     3.0407     5.7462    4 NA  -1-1 0    4 NA  -1-1-1
   1 NA   4     3.0581     5.7789    5 NA   0 0-1    5 NA   0 0 0    6 NA   0 0 0
                                     6 NA   0 0-1
   1 NA   2     3.2231     6.0907    2 NA   0 0 0    3 NA   0 0 0
   1 NA   2     3.5250     6.6613    7 O    0 0-1    8 O    0 0 1

   4 NA   2     2.3902     4.5168    7 O    0 0 0    8 O    0 0 1
   4 NA   4     2.4484     4.6268    9 O    1 1 1   10 O    1 1 0   11 O    1 1 1
                                    12 O    1 1 0
   4 NA   2     3.0407     5.7462    1 NA   1 1 0    1 NA   1 1 1
   4 NA   4     3.0581     5.7789    2 NA   0 0 0    2 NA   0 0 1    3 NA   0 0 1
                                     3 NA   0 0 0
   4 NA   4     3.4149     6.4531    5 NA   1 1 0    5 NA   1 0 0    6 NA   0 1 0
                                     6 NA   1 1 0
   4 NA   4     3.5971     6.7976    9 O    1 1 0   10 O    1 1 1   11 O    1 1 0
                                    12 O    1 1 1

   7 O    1     1.5272     2.8861    8 O    0 0 1
   7 O    3     2.3693     4.4773    1 NA   0 0 0    2 NA   0 0 0    3 NA   0 0 0
   7 O    3     2.3902     4.5168    4 NA   0 0 0    5 NA   0 0 0    6 NA   0 0 0
   7 O    1     2.9332     5.5429    8 O    0 0 0
   7 O    3     3.5250     6.6613    1 NA   0 0 1    2 NA   0 0 1    3 NA   0 0 1
   7 O    6     3.6410     6.8804   10 O    1 1 0   10 O    1 0 0   10 O    0 0 0
                                    12 O    0 0 0   12 O    1 1 0   12 O    0 1 0

   9 O    1     1.5570     2.9422   12 O    0 0 0
   9 O    3     2.3083     4.3621    1 NA   0 0 0    2 NA  -1-1 0    3 NA   0-1 0
   9 O    3     2.4484     4.6268    4 NA  -1-1-1    5 NA   0-1-1    6 NA   0 0-1
   9 O    1     2.9035     5.4868   12 O    0 0-1
   9 O    3     3.5754     6.7564   11 O    0 0 0   11 O    1 0 0   11 O    0-1 0
   9 O    3     3.5971     6.7976    4 NA  -1-1 0    5 NA   0-1 0    6 NA   0 0 0


 SYMMETRY ALLOWED ELASTIC DISTORTION 1
  0.5773503  0.0000000  0.0000000
  0.0000000  0.5773503  0.0000000
  0.0000000  0.0000000  0.5773503

 SYMMETRY ALLOWED ELASTIC DISTORTION 2
  0.4082483  0.0000000  0.0000000
  0.0000000  0.4082483  0.0000000
  0.0000000  0.0000000 -0.8164966

 SYMMETRY ALLOWED INTERNAL DEGREE(S) OF FREEDOM:   4
 TTTTTTTTTTTTTTTTTTTTTTTTTTTTTT SYMM        TELAPSE        4.11 TCPU        2.17
 TTTTTTTTTTTTTTTTTTTTTTTTTTTTTT INT_SCREEN  TELAPSE        4.12 TCPU        2.18

 *******************************************************************************
 *                             OPTIMIZATION STARTS                             *
 *******************************************************************************
 RECLASIFICATION OF INDICES FOR INTEGRAL CALC ACCORDING TO DIFFERENT CRITERIA:
           FIXDELTE                  FIXDELTX              FIXDELTN
          0.10000000               0.80000000                 10
 *******************************************************************************

 *******************************************************************************
 COORDINATE AND CELL OPTIMIZATION - POINT    1

 DFT PARAMETERS

     ATOM       ELECTRONS   NET CHARGE   R(ANGSTROM)
   1  11  NA     11.0000      0.0000     1.91000000
   7   8  O       8.0000      0.0000     0.74000000

 SIZE OF GRID=      59226
 TTTTTTTTTTTTTTTTTTTTTTTTTTTTTT MAKE_GRID2  TELAPSE       25.46 TCPU       23.40
 BECKE WEIGHT FUNCTION
 RADSAFE =     2.00
 TOLERANCES - DENSITY:10**- 6; POTENTIAL:10**- 9; GRID WGT:10**-14

 RADIAL INTEGRATION  - INTERVALS (POINTS,UPPER LIMIT):            1( 99,  4.0*R)

 ANGULAR INTEGRATION - INTERVALS (ACCURACY LEVEL [N. POINTS] UPPER LIMIT):
  1(  6[ 146]   0.2)  2( 11[ 302]   0.5)  3( 14[ 590]   0.9)  4( 18[1454]   3.5)
  5( 14[ 590]9999.0)
 TTTTTTTTTTTTTTTTTTTTTTTTTTTTTT INT_CALC    TELAPSE       25.49 TCPU       23.43

 *******************************************************************************
 ICSD_CollCode134060.cif                                                         
 CRYSTAL - SCF - TYPE OF CALCULATION :  RESTRICTED CLOSED SHELL
 *******************************************************************************

 CAPPA:IS1  8;IS2  8;IS3  8; K PTS MONK NET  50; SYMMOPS:K SPACE  24;G SPACE  12

 TTTTTTTTTTTTTTTTTTTTTTTTTTTTTT SDIK        TELAPSE       25.50 TCPU       23.44

 AAAAAAAAAAAAAAAAAAAAAAAAAAAAAAAAAAAAAAAAAAAAAAAAAAAAAAAAAAAAAAAAAAAAAAAAAAAAAAA
         ATOMIC WAVEFUNCTION(S)


 NUCLEAR CHARGE 11.0  SYMMETRY SPECIES            S    P
 N. ELECTRONS   11.0  NUMBER OF PRIMITIVE GTOS   14    7
                      NUMBER OF CONTRACTED GTOS   5    3
                      NUMBER OF CLOSED SHELLS     2    1
                      OPEN SHELL OCCUPATION       1    0

  ZNUC  SCFIT    TOTAL HF ENERGY   KINETIC ENERGY   VIRIAL THEOREM             ACCURACY
  11.0    11    -1.617861506E+02  1.621735376E+02 -1.997611281E+00  3.2E-06

 NUCLEAR CHARGE  8.0  SYMMETRY SPECIES            S    P
 N. ELECTRONS    8.0  NUMBER OF PRIMITIVE GTOS   10    6
                      NUMBER OF CONTRACTED GTOS   4    3
                      NUMBER OF CLOSED SHELLS     2    0
                      OPEN SHELL OCCUPATION       0    4

  ZNUC  SCFIT    TOTAL HF ENERGY   KINETIC ENERGY   VIRIAL THEOREM             ACCURACY
   8.0    13    -7.480300556E+01  7.484348362E+01 -1.999459164E+00  4.9E-06

 AAAAAAAAAAAAAAAAAAAAAAAAAAAAAAAAAAAAAAAAAAAAAAAAAAAAAAAAAAAAAAAAAAAAAAAAAAAAAAA

 TTTTTTTTTTTTTTTTTTTTTTTTTTTTTT MOQGAD      TELAPSE       25.51 TCPU       23.45
 TTTTTTTTTTTTTTTTTTTTTTTTTTTTTT SHELLXN     TELAPSE       30.76 TCPU       28.67
 TTTTTTTTTTTTTTTTTTTTTTTTTTTTTT MONMO3      TELAPSE       30.77 TCPU       28.68
 NUMERICALLY INTEGRATED DENSITY    113.9999334283
 TTTTTTTTTTTTTTTTTTTTTTTTTTTTTT NUMDFT      TELAPSE       30.92 TCPU       28.83
 CYC   0 ETOT(AU) -1.423593415688E+03 DETOT -1.42E+03 tst  0.00E+00 PX  1.00E+00
 TTTTTTTTTTTTTTTTTTTTTTTTTTTTTT DIIS        TELAPSE       30.93 TCPU       28.84
 TTTTTTTTTTTTTTTTTTTTTTTTTTTTTT FDIK        TELAPSE       30.97 TCPU       28.87
 INSULATING STATE
 TOP OF VALENCE BANDS -    BAND     57; K    1; EIG -2.8279170E-01 AU
 BOTTOM OF VIRTUAL BANDS - BAND     58; K   41; EIG -1.6335528E-01 AU
 INDIRECT ENERGY BAND GAP:   3.2500 eV
 BOTTOM OF VIRTUAL BANDS - BAND     58; K    1; EIG -9.7663704E-02 AU
 TTTTTTTTTTTTTTTTTTTTTTTTTTTTTT PDIG        TELAPSE       31.00 TCPU       28.90
 TTTTTTTTTTTTTTTTTTTTTTTTTTTTTT MOQGAD      TELAPSE       31.00 TCPU       28.90
 TTTTTTTTTTTTTTTTTTTTTTTTTTTTTT SHELLXN     TELAPSE       36.40 TCPU       34.27
 TTTTTTTTTTTTTTTTTTTTTTTTTTTTTT MONMO3      TELAPSE       36.41 TCPU       34.27
 NUMERICALLY INTEGRATED DENSITY    113.9999514244
 TTTTTTTTTTTTTTTTTTTTTTTTTTTTTT NUMDFT      TELAPSE       36.55 TCPU       34.42
 CYC   1 ETOT(AU) -1.424283639354E+03 DETOT -6.90E-01 tst  0.00E+00 PX  1.00E+00
 TTTTTTTTTTTTTTTTTTTTTTTTTTTTTT DIIS        TELAPSE       36.56 TCPU       34.42
 DIIS TEST: 0.16419E+01 AT SCF   CYCLE   1 - MIX   30 %
 TTTTTTTTTTTTTTTTTTTTTTTTTTTTTT FDIK        TELAPSE       36.60 TCPU       34.46
 INSULATING STATE
 TOP OF VALENCE BANDS -    BAND     57; K    1; EIG -1.3915641E-01 AU
 BOTTOM OF VIRTUAL BANDS - BAND     58; K   41; EIG -1.5126450E-02 AU
 INDIRECT ENERGY BAND GAP:   3.3750 eV
 BOTTOM OF VIRTUAL BANDS - BAND     58; K    1; EIG  1.0057305E-02 AU
 TTTTTTTTTTTTTTTTTTTTTTTTTTTTTT PDIG        TELAPSE       36.64 TCPU       34.49
 TTTTTTTTTTTTTTTTTTTTTTTTTTTTTT MOQGAD      TELAPSE       36.64 TCPU       34.49
 TTTTTTTTTTTTTTTTTTTTTTTTTTTTTT SHELLXN     TELAPSE       42.03 TCPU       39.86
 TTTTTTTTTTTTTTTTTTTTTTTTTTTTTT MONMO3      TELAPSE       42.04 TCPU       39.86
 NUMERICALLY INTEGRATED DENSITY    113.9999573109
 TTTTTTTTTTTTTTTTTTTTTTTTTTTTTT NUMDFT      TELAPSE       42.18 TCPU       40.01
 CYC   2 ETOT(AU) -1.424380466654E+03 DETOT -9.68E-02 tst  5.39E-03 PX  9.17E-02
 TTTTTTTTTTTTTTTTTTTTTTTTTTTTTT DIIS        TELAPSE       42.19 TCPU       40.01
 DIIS TEST: 0.78799E+00 AT SCF   CYCLE   2 - DIIS ACTIVE - HISTORY:     2 CYCLES
 TTTTTTTTTTTTTTTTTTTTTTTTTTTTTT FDIK        TELAPSE       42.33 TCPU       40.13
 INSULATING STATE
 TOP OF VALENCE BANDS -    BAND     57; K    1; EIG -1.9328125E-01 AU
 BOTTOM OF VIRTUAL BANDS - BAND     58; K   41; EIG -2.7745008E-02 AU
 INDIRECT ENERGY BAND GAP:   4.5045 eV
 BOTTOM OF VIRTUAL BANDS - BAND     58; K    1; EIG  1.8180760E-02 AU
 TTTTTTTTTTTTTTTTTTTTTTTTTTTTTT PDIG        TELAPSE       42.37 TCPU       40.16
 TTTTTTTTTTTTTTTTTTTTTTTTTTTTTT MOQGAD      TELAPSE       42.37 TCPU       40.16
 TTTTTTTTTTTTTTTTTTTTTTTTTTTTTT SHELLXN     TELAPSE       47.76 TCPU       45.52
 TTTTTTTTTTTTTTTTTTTTTTTTTTTTTT MONMO3      TELAPSE       47.77 TCPU       45.53
 NUMERICALLY INTEGRATED DENSITY    113.9999552553
 TTTTTTTTTTTTTTTTTTTTTTTTTTTTTT NUMDFT      TELAPSE       47.91 TCPU       45.67
 CYC   3 ETOT(AU) -1.424447542338E+03 DETOT -6.71E-02 tst  9.41E-04 PX  3.46E-02
 TTTTTTTTTTTTTTTTTTTTTTTTTTTTTT DIIS        TELAPSE       47.92 TCPU       45.68
 DIIS TEST: 0.37809E-02 AT SCF   CYCLE   3 - DIIS ACTIVE - HISTORY:     3 CYCLES
 TTTTTTTTTTTTTTTTTTTTTTTTTTTTTT FDIK        TELAPSE       47.95 TCPU       45.71
 INSULATING STATE
 TOP OF VALENCE BANDS -    BAND     57; K    1; EIG -1.9369713E-01 AU
 BOTTOM OF VIRTUAL BANDS - BAND     58; K   41; EIG -2.6344109E-02 AU
 INDIRECT ENERGY BAND GAP:   4.5539 eV
 BOTTOM OF VIRTUAL BANDS - BAND     58; K    1; EIG  1.8923738E-02 AU
 TTTTTTTTTTTTTTTTTTTTTTTTTTTTTT PDIG        TELAPSE       47.99 TCPU       45.74
 TTTTTTTTTTTTTTTTTTTTTTTTTTTTTT MOQGAD      TELAPSE       47.99 TCPU       45.75
 TTTTTTTTTTTTTTTTTTTTTTTTTTTTTT SHELLXN     TELAPSE       53.39 TCPU       51.11
 TTTTTTTTTTTTTTTTTTTTTTTTTTTTTT MONMO3      TELAPSE       53.39 TCPU       51.12
 NUMERICALLY INTEGRATED DENSITY    113.9999554145
 TTTTTTTTTTTTTTTTTTTTTTTTTTTTTT NUMDFT      TELAPSE       53.54 TCPU       51.26
 CYC   4 ETOT(AU) -1.424447938763E+03 DETOT -3.96E-04 tst  1.67E-05 PX  3.26E-03
 TTTTTTTTTTTTTTTTTTTTTTTTTTTTTT DIIS        TELAPSE       53.56 TCPU       51.29
 DIIS TEST: 0.14813E-03 AT SCF   CYCLE   4 - DIIS ACTIVE - HISTORY:     4 CYCLES
 TTTTTTTTTTTTTTTTTTTTTTTTTTTTTT FDIK        TELAPSE       53.60 TCPU       51.32
 INSULATING STATE
 TOP OF VALENCE BANDS -    BAND     57; K    1; EIG -1.9415841E-01 AU
 BOTTOM OF VIRTUAL BANDS - BAND     58; K   41; EIG -2.6382150E-02 AU
 INDIRECT ENERGY BAND GAP:   4.5654 eV
 BOTTOM OF VIRTUAL BANDS - BAND     58; K    1; EIG  1.9343664E-02 AU
 TTTTTTTTTTTTTTTTTTTTTTTTTTTTTT PDIG        TELAPSE       53.63 TCPU       51.35
 TTTTTTTTTTTTTTTTTTTTTTTTTTTTTT MOQGAD      TELAPSE       53.63 TCPU       51.35
 TTTTTTTTTTTTTTTTTTTTTTTTTTTTTT SHELLXN     TELAPSE       59.03 TCPU       56.72
 TTTTTTTTTTTTTTTTTTTTTTTTTTTTTT MONMO3      TELAPSE       59.04 TCPU       56.73
 NUMERICALLY INTEGRATED DENSITY    113.9999554282
 TTTTTTTTTTTTTTTTTTTTTTTTTTTTTT NUMDFT      TELAPSE       59.18 TCPU       56.87
 CYC   5 ETOT(AU) -1.424447955098E+03 DETOT -1.63E-05 tst  7.44E-07 PX  8.30E-04
 TTTTTTTTTTTTTTTTTTTTTTTTTTTTTT DIIS        TELAPSE       59.19 TCPU       56.88
 DIIS TEST: 0.20495E-04 AT SCF   CYCLE   5 - DIIS ACTIVE - HISTORY:     5 CYCLES
 TTTTTTTTTTTTTTTTTTTTTTTTTTTTTT FDIK        TELAPSE       59.22 TCPU       56.91
 INSULATING STATE
 TOP OF VALENCE BANDS -    BAND     57; K    1; EIG -1.9411694E-01 AU
 BOTTOM OF VIRTUAL BANDS - BAND     58; K   41; EIG -2.6158196E-02 AU
 INDIRECT ENERGY BAND GAP:   4.5704 eV
 BOTTOM OF VIRTUAL BANDS - BAND     58; K    1; EIG  1.9449972E-02 AU
 TTTTTTTTTTTTTTTTTTTTTTTTTTTTTT PDIG        TELAPSE       59.26 TCPU       56.94
 TTTTTTTTTTTTTTTTTTTTTTTTTTTTTT MOQGAD      TELAPSE       59.26 TCPU       56.94
 TTTTTTTTTTTTTTTTTTTTTTTTTTTTTT SHELLXN     TELAPSE       64.65 TCPU       62.30
 TTTTTTTTTTTTTTTTTTTTTTTTTTTTTT MONMO3      TELAPSE       64.65 TCPU       62.31
 NUMERICALLY INTEGRATED DENSITY    113.9999554212
 TTTTTTTTTTTTTTTTTTTTTTTTTTTTTT NUMDFT      TELAPSE       64.80 TCPU       62.45
 CYC   6 ETOT(AU) -1.424447956948E+03 DETOT -1.85E-06 tst  5.79E-08 PX  2.61E-04
 TTTTTTTTTTTTTTTTTTTTTTTTTTTTTT DIIS        TELAPSE       64.81 TCPU       62.46
 DIIS TEST: 0.14719E-05 AT SCF   CYCLE   6 - DIIS ACTIVE - HISTORY:     6 CYCLES
 TTTTTTTTTTTTTTTTTTTTTTTTTTTTTT FDIK        TELAPSE       64.84 TCPU       62.49
 INSULATING STATE
 TOP OF VALENCE BANDS -    BAND     57; K    1; EIG -1.9406189E-01 AU
 BOTTOM OF VIRTUAL BANDS - BAND     58; K   41; EIG -2.6137736E-02 AU
 INDIRECT ENERGY BAND GAP:   4.5695 eV
 BOTTOM OF VIRTUAL BANDS - BAND     58; K    1; EIG  1.9513294E-02 AU
 TTTTTTTTTTTTTTTTTTTTTTTTTTTTTT PDIG        TELAPSE       64.88 TCPU       62.53
 TTTTTTTTTTTTTTTTTTTTTTTTTTTTTT MOQGAD      TELAPSE       64.88 TCPU       62.53
 TTTTTTTTTTTTTTTTTTTTTTTTTTTTTT SHELLXN     TELAPSE       70.27 TCPU       67.89
 TTTTTTTTTTTTTTTTTTTTTTTTTTTTTT MONMO3      TELAPSE       70.27 TCPU       67.90
 NUMERICALLY INTEGRATED DENSITY    113.9999554251
 TTTTTTTTTTTTTTTTTTTTTTTTTTTTTT NUMDFT      TELAPSE       70.42 TCPU       68.04
 CYC   7 ETOT(AU) -1.424447957086E+03 DETOT -1.39E-07 tst  2.38E-09 PX  9.54E-05
 TTTTTTTTTTTTTTTTTTTTTTTTTTTTTT DIIS        TELAPSE       70.43 TCPU       68.05
 DIIS TEST: 0.73712E-07 AT SCF   CYCLE   7 - DIIS ACTIVE - HISTORY:     7 CYCLES
 TTTTTTTTTTTTTTTTTTTTTTTTTTTTTT FDIK        TELAPSE       70.46 TCPU       68.08
 INSULATING STATE
 TOP OF VALENCE BANDS -    BAND     57; K    1; EIG -1.9404836E-01 AU
 BOTTOM OF VIRTUAL BANDS - BAND     58; K   41; EIG -2.6116490E-02 AU
 INDIRECT ENERGY BAND GAP:   4.5697 eV
 BOTTOM OF VIRTUAL BANDS - BAND     58; K    1; EIG  1.9531696E-02 AU
 TTTTTTTTTTTTTTTTTTTTTTTTTTTTTT PDIG        TELAPSE       70.50 TCPU       68.11
 TTTTTTTTTTTTTTTTTTTTTTTTTTTTTT MOQGAD      TELAPSE       70.50 TCPU       68.11
 TTTTTTTTTTTTTTTTTTTTTTTTTTTTTT SHELLXN     TELAPSE       75.89 TCPU       73.48
 TTTTTTTTTTTTTTTTTTTTTTTTTTTTTT MONMO3      TELAPSE       75.90 TCPU       73.48
 NUMERICALLY INTEGRATED DENSITY    113.9999554256
 TTTTTTTTTTTTTTTTTTTTTTTTTTTTTT NUMDFT      TELAPSE       76.04 TCPU       73.63
 CYC   8 ETOT(AU) -1.424447957131E+03 DETOT -4.47E-08 tst  1.35E-10 PX  1.75E-05
 TTTTTTTTTTTTTTTTTTTTTTTTTTTTTT DIIS        TELAPSE       76.06 TCPU       73.65
 DIIS TEST: 0.18155E-09 AT SCF   CYCLE   8 - DIIS ACTIVE - HISTORY:     8 CYCLES
 TTTTTTTTTTTTTTTTTTTTTTTTTTTTTT FDIK        TELAPSE       76.10 TCPU       73.68
 INSULATING STATE
 TOP OF VALENCE BANDS -    BAND     57; K    1; EIG -1.9404621E-01 AU
 BOTTOM OF VIRTUAL BANDS - BAND     58; K   41; EIG -2.6114228E-02 AU
 INDIRECT ENERGY BAND GAP:   4.5697 eV
 BOTTOM OF VIRTUAL BANDS - BAND     58; K    1; EIG  1.9534391E-02 AU
 TTTTTTTTTTTTTTTTTTTTTTTTTTTTTT PDIG        TELAPSE       76.13 TCPU       73.71
 TTTTTTTTTTTTTTTTTTTTTTTTTTTTTT MOQGAD      TELAPSE       76.14 TCPU       73.72
 TTTTTTTTTTTTTTTTTTTTTTTTTTTTTT SHELLXN     TELAPSE       81.53 TCPU       79.08
 TTTTTTTTTTTTTTTTTTTTTTTTTTTTTT MONMO3      TELAPSE       81.53 TCPU       79.08
 NUMERICALLY INTEGRATED DENSITY    113.9999554257
 TTTTTTTTTTTTTTTTTTTTTTTTTTTTTT NUMDFT      TELAPSE       81.68 TCPU       79.23
 CYC   9 ETOT(AU) -1.424447957131E+03 DETOT -9.69E-11 tst  1.53E-12 PX  1.79E-06
 TTTTTTTTTTTTTTTTTTTTTTTTTTTTTT DIIS        TELAPSE       81.68 TCPU       79.23
 DIIS TEST: 0.24324E-10 AT SCF   CYCLE   9 - DIIS ACTIVE - HISTORY:     9 CYCLES
 TTTTTTTTTTTTTTTTTTTTTTTTTTTTTT FDIK        TELAPSE       81.72 TCPU       79.26
 INSULATING STATE
 TOP OF VALENCE BANDS -    BAND     57; K    1; EIG -1.9404602E-01 AU
 BOTTOM OF VIRTUAL BANDS - BAND     58; K   41; EIG -2.6114065E-02 AU
 INDIRECT ENERGY BAND GAP:   4.5697 eV
 BOTTOM OF VIRTUAL BANDS - BAND     58; K    1; EIG  1.9534667E-02 AU
 TTTTTTTTTTTTTTTTTTTTTTTTTTTTTT PDIG        TELAPSE       81.75 TCPU       79.30
 TTTTTTTTTTTTTTTTTTTTTTTTTTTTTT MOQGAD      TELAPSE       81.76 TCPU       79.30
 TTTTTTTTTTTTTTTTTTTTTTTTTTTTTT SHELLXN     TELAPSE       87.15 TCPU       84.67
 TTTTTTTTTTTTTTTTTTTTTTTTTTTTTT MONMO3      TELAPSE       87.16 TCPU       84.67
 NUMERICALLY INTEGRATED DENSITY    113.9999554257
 TTTTTTTTTTTTTTTTTTTTTTTTTTTTTT NUMDFT      TELAPSE       87.30 TCPU       84.82
 CYC  10 ETOT(AU) -1.424447957131E+03 DETOT -1.42E-10 tst  1.31E-13 PX  2.97E-07
 TTTTTTTTTTTTTTTTTTTTTTTTTTTTTT DIIS        TELAPSE       87.34 TCPU       84.85
 DIIS TEST: 0.62343E-13 AT SCF   CYCLE  10 - DIIS ACTIVE - HISTORY:    10 CYCLES
 TTTTTTTTTTTTTTTTTTTTTTTTTTTTTT FDIK        TELAPSE       87.37 TCPU       84.88
 INSULATING STATE
 TOP OF VALENCE BANDS -    BAND     57; K    1; EIG -1.9404602E-01 AU
 BOTTOM OF VIRTUAL BANDS - BAND     58; K   41; EIG -2.6114039E-02 AU
 INDIRECT ENERGY BAND GAP:   4.5697 eV
 BOTTOM OF VIRTUAL BANDS - BAND     58; K    1; EIG  1.9534684E-02 AU
 TTTTTTTTTTTTTTTTTTTTTTTTTTTTTT PDIG        TELAPSE       87.41 TCPU       84.92
 TTTTTTTTTTTTTTTTTTTTTTTTTTTTTT MOQGAD      TELAPSE       87.41 TCPU       84.92
 TTTTTTTTTTTTTTTTTTTTTTTTTTTTTT SHELLXN     TELAPSE       92.80 TCPU       90.28
 TTTTTTTTTTTTTTTTTTTTTTTTTTTTTT MONMO3      TELAPSE       92.81 TCPU       90.29
 NUMERICALLY INTEGRATED DENSITY    113.9999554257
 TTTTTTTTTTTTTTTTTTTTTTTTTTTTTT NUMDFT      TELAPSE       92.95 TCPU       90.43
 CYC  11 ETOT(AU) -1.424447957131E+03 DETOT  3.00E-11 tst  7.29E-16 PX  1.55E-08
 TTTTTTTTTTTTTTTTTTTTTTTTTTTTTT DIIS        TELAPSE       92.96 TCPU       90.44
 DIIS TEST: 0.51743E-15 AT SCF   CYCLE  11 - DIIS ACTIVE - HISTORY:    11 CYCLES
 TTTTTTTTTTTTTTTTTTTTTTTTTTTTTT FDIK        TELAPSE       92.99 TCPU       90.47
 INSULATING STATE
 TOP OF VALENCE BANDS -    BAND     57; K    1; EIG -1.9404602E-01 AU
 BOTTOM OF VIRTUAL BANDS - BAND     58; K   41; EIG -2.6114040E-02 AU
 INDIRECT ENERGY BAND GAP:   4.5697 eV
 BOTTOM OF VIRTUAL BANDS - BAND     58; K    1; EIG  1.9534684E-02 AU
 TTTTTTTTTTTTTTTTTTTTTTTTTTTTTT PDIG        TELAPSE       93.03 TCPU       90.50
 TTTTTTTTTTTTTTTTTTTTTTTTTTTTTT MOQGAD      TELAPSE       93.03 TCPU       90.50
 TTTTTTTTTTTTTTTTTTTTTTTTTTTTTT SHELLXN     TELAPSE       98.42 TCPU       95.87
 TTTTTTTTTTTTTTTTTTTTTTTTTTTTTT MONMO3      TELAPSE       98.43 TCPU       95.87
 NUMERICALLY INTEGRATED DENSITY    113.9999554257
 TTTTTTTTTTTTTTTTTTTTTTTTTTTTTT NUMDFT      TELAPSE       98.57 TCPU       96.02
 CYC  12 ETOT(AU) -1.424447957131E+03 DETOT  2.73E-12 tst  4.72E-18 PX  1.15E-09
 TTTTTTTTTTTTTTTTTTTTTTTTTTTTTT DIIS        TELAPSE       98.58 TCPU       96.02
 DIIS TEST: 0.26804E-16 AT SCF   CYCLE  12 - DIIS ACTIVE - HISTORY:    12 CYCLES
 TTTTTTTTTTTTTTTTTTTTTTTTTTTTTT FDIK        TELAPSE       98.61 TCPU       96.05
 INSULATING STATE
 TOP OF VALENCE BANDS -    BAND     57; K    1; EIG -1.9404602E-01 AU
 BOTTOM OF VIRTUAL BANDS - BAND     58; K   41; EIG -2.6114040E-02 AU
 INDIRECT ENERGY BAND GAP:   4.5697 eV
 BOTTOM OF VIRTUAL BANDS - BAND     58; K    1; EIG  1.9534684E-02 AU
 TTTTTTTTTTTTTTTTTTTTTTTTTTTTTT PDIG        TELAPSE       98.65 TCPU       96.09
 TTTTTTTTTTTTTTTTTTTTTTTTTTTTTT MOQGAD      TELAPSE       98.65 TCPU       96.09
 TTTTTTTTTTTTTTTTTTTTTTTTTTTTTT SHELLXN     TELAPSE      104.05 TCPU      101.46
 ::: PSEUDO TOTAL   ENERGY                        -1.3202629735799E+03
 ::: VIRIAL COEFFICIENT                            1.0361869970729E+00
 TTTTTTTTTTTTTTTTTTTTTTTTTTTTTT MONMO3      TELAPSE      104.06 TCPU      101.47
 NUMERICALLY INTEGRATED DENSITY    113.9999554257
 EXCHANGE ENERGY: -0.100161246967E+03  CORRELATION ENERGY: -0.402373658439E+01
 TTTTTTTTTTTTTTTTTTTTTTTTTTTTTT NUMDFT      TELAPSE      104.20 TCPU      101.61
 CYC  13 ETOT(AU) -1.424447957131E+03 DETOT -9.09E-13 tst  2.63E-20 PX  1.15E-09

 == SCF ENDED - CONVERGENCE ON ENERGY      E(AU) -1.4244479571314E+03 CYCLES  13


 ENERGY EXPRESSION=HARTREE+FOCK EXCH*0.25000+(PBE        EXCH)*0.75000+PBE        CORR


 TOTAL ENERGY(DFT)(AU)( 13) -1.4244479571314E+03 DE-9.1E-13 tester 2.6E-20
 TTTTTTTTTTTTTTTTTTTTTTTTTTTTTT EDFT        TELAPSE      104.21 TCPU      101.61

 *******************************************************************************
 *                             FORCE CALCULATION                               *
 *******************************************************************************

 TTTTTTTTTTTTTTTTTTTTTTTTTTTTTT NUMDFG      TELAPSE      105.32 TCPU      102.71
 INFORMATION **** EXCPOG **** EXCH. BIPO BUFFER LENGTH (WORDS) =     5624136
 INFORMATION **** GENPOG **** BIPO BUFFER LENGTH (WORDS) =     1809900
 TTTTTTTTTTTTTTTTTTTTTTTTTTTTTT SHELXG      TELAPSE      138.76 TCPU      135.96

 CARTESIAN FORCES IN HARTREE/BOHR (ANALYTICAL)
   ATOM                     X                   Y                   Z
   1  11            -1.494725046277E-04 -8.629799079019E-05 -8.881784197001E-16
   2  11             1.494725046241E-04 -8.629799078072E-05  6.753856733136E-16
   3  11             9.251858538543E-16  1.725959815701E-04 -1.767104980862E-15
   4  11            -4.990420988247E-04 -2.881220901058E-04  2.664535259100E-15
   5  11             4.990420988367E-04 -2.881220900919E-04  0.000000000000E+00
   6  11            -4.736951571734E-15  5.762441801910E-04 -1.295260195396E-15
   7   8             1.411291402691E-15 -3.341041413768E-15  3.172412740544E-03
   8   8             1.190748470051E-15 -1.915637932506E-15 -3.172412740544E-03
   9   8            -1.984941468364E-15  3.771009477889E-15  8.612599834666E-03
  10   8            -8.635033737302E-16  3.126171722289E-16 -8.612599834666E-03
  11   8            -1.710568553976E-15  4.213499994754E-15  8.612599834666E-03
  12   8            -2.023894282525E-15  4.529191696422E-15 -8.612599834666E-03

 RESULTANT FORCE     5.710827351819E-16  2.012242756893E-17 -1.665334536938E-16

 ATOMIC PART

 SYMMETRY ALLOWED FORCES (ANALYTICAL) (DIRECTION, FORCE)

    1 -2.9894501E-04    2 -9.9808420E-04    3  4.4864691E-03    4  1.7225200E-02

 CELL PART

 GRADIENT WITH RESPECT TO THE CELL PARAMETER IN HARTREE/BOHR
ORDER: -D/DA1X, -D/DA1Y, -D/DA1Z
       -D/DA2X, -D/DA2Y, -D/DA2Z
       -D/DA3X, -D/DA3Y, -D/DA3Z
 -0.499457803620E-03 -0.332979419926E-14  0.263435427639E-15
 -0.249728901813E-03 -0.432543146053E-03 -0.967328938741E-15
 -0.907030087111E-15 -0.161271389018E-14 -0.643451731862E-02

STRESS TENSOR, IN HARTREE/BOHR^3:
ORDER: 11 12 13
       21 22 23
       31 32 33
  0.506343534320E-05  0.415887900277E-16  0.764774220864E-17
  0.337570011158E-16  0.506343534318E-05  0.135978070228E-16
 -0.267067256791E-17  0.128656567910E-16  0.542534700768E-04

STRESS TENSOR DOES NOT CORRESPOND TO
HYDROSTATIC PRESSURE, NO PRESSURE COMPUTED!

 SYMMETRY ALLOWED FORCES (ANALYTICAL) (DIRECTION, FORCE)

    1 -3.4306138E-03    2  4.0701696E-03
 TTTTTTTTTTTTTTTTTTTTTTTTTTTTTT TOTGRA      TELAPSE      138.92 TCPU      136.12
 INFORMATION **** optc001 **** GEOMETRY OUTPUT FILE
 CLASSICAL MODEL (SCHLEGEL) USED AS INITIAL HESSIAN MATRIX
 REFERENCE GEOMETRY DEFINED

 MAX GRADIENT      0.017225  THRESHOLD              0.000045 CONVERGED NO
 RMS GRADIENT      0.007597  THRESHOLD              0.000030 CONVERGED NO

 GRADIENT NORM     0.018608  GRADIENT THRESHOLD     0.500000

 EIGENVALUES OF THE ESTIMATED HESSIAN
  0.4468E-01  0.6453E-01  0.1646      0.3678      0.7444      0.9792    

 INITIAL TRUST RADIUS    0.5000000000E+00

 PREDICTED ENERGY CHANGE    -0.237E-03

 INITIAL DISPLACEMENTS
 -0.000954 -0.007899  0.004972  0.025231 -0.004685 -0.001580
 TTTTTTTTTTTTTTTTTTTTTTTTTTTTTT OPTI        TELAPSE      145.63 TCPU      142.78

 OPTOPTOPTOPTOPTOPTOPTOPTOPTOPTOPTOPTOPTOPTOPTOPTOPTOPTOPTOPTOPTOPTOPTOPTOPTOPT

 - INFORMATION ON SCF MOVED TO SCFOUT.LOG
 GEOMETRY OPTIMIZATION INFORMATION STORED IN OPTINFO.DAT

 OPTOPTOPTOPTOPTOPTOPTOPTOPTOPTOPTOPTOPTOPTOPTOPTOPTOPTOPTOPTOPTOPTOPTOPTOPTOPT
 *******************************************************************************
 COORDINATE AND CELL OPTIMIZATION - POINT    2
 *******************************************************************************
 LATTICE PARAMETERS (ANGSTROMS AND DEGREES) - BOHR = 0.5291772083 ANGSTROM
 PRIMITIVE CELL - CENTRING CODE 1/0 VOLUME=   148.027037 - DENSITY  2.624 g/cm^3
         A              B              C           ALPHA      BETA       GAMMA 
     6.19074862     6.19074862     4.45988924    90.000000  90.000000 120.000000
 *******************************************************************************
 ATOMS IN THE ASYMMETRIC UNIT    4 - ATOMS IN THE UNIT CELL:   12
     ATOM                 X/A                 Y/B                 Z/C    
 *******************************************************************************
      1 T  11 NA   -3.005370730968E-01 -3.005370730968E-01  0.000000000000E+00
      2 F  11 NA    3.005370730968E-01 -8.899089135833E-18  0.000000000000E+00
      3 F  11 NA    6.281053603740E-18  3.005370730968E-01  0.000000000000E+00
      4 T  11 NA    3.653502825352E-01  3.653502825352E-01  5.000000000000E-01
      5 F  11 NA   -3.653502825352E-01 -8.795207481433E-17  5.000000000000E-01
      6 F  11 NA    3.564121217607E-17 -3.653502825352E-01  5.000000000000E-01
      7 T   8 O     0.000000000000E+00  0.000000000000E+00  3.292171318033E-01
      8 F   8 O     0.000000000000E+00  0.000000000000E+00 -3.292171318033E-01
      9 T   8 O    -3.333333333333E-01  3.333333333333E-01 -1.730333195700E-01
     10 F   8 O     3.333333333333E-01 -3.333333333333E-01  1.730333195700E-01
     11 F   8 O     3.333333333333E-01 -3.333333333333E-01 -1.730333195700E-01
     12 F   8 O    -3.333333333333E-01  3.333333333333E-01  1.730333195700E-01

 T = ATOM BELONGING TO THE ASYMMETRIC UNIT

 TOTAL ENERGY(DFT)(AU)( 11) -1.4244482847659E+03     DE (AU)   -3.276E-04

 UPDATED TRUST RADIUS     0.500E+00

 SYMMETRY ALLOWED FORCES  (COORDINATE, FORCE)

    1 -2.5159315E-05    2 -3.9571526E-04    3  1.9174503E-03    4  6.3069261E-03
    5 -1.5363159E-03    6  1.3959333E-03

 GRADIENT NORM     0.006922  GRADIENT THRESHOLD     0.500000

 EIGENVALUES OF THE ESTIMATED HESSIAN
  0.4491E-01  0.6445E-01  0.1574      0.3678      0.4915      0.9697    

 PREDICTED ENERGY CHANGE    -0.540E-04

 MAX GRADIENT      0.006307  THRESHOLD              0.000045 CONVERGED NO
 RMS GRADIENT      0.002826  THRESHOLD              0.000030 CONVERGED NO
 MAX DISPLAC.      0.014013  THRESHOLD              0.000180 CONVERGED NO
 RMS DISPLAC.      0.007148  THRESHOLD              0.000120 CONVERGED NO
 TTTTTTTTTTTTTTTTTTTTTTTTTTTTTT OPTI        TELAPSE      260.30 TCPU      252.11
 *******************************************************************************
 COORDINATE AND CELL OPTIMIZATION - POINT    3
 *******************************************************************************
 LATTICE PARAMETERS (ANGSTROMS AND DEGREES) - BOHR = 0.5291772083 ANGSTROM
 PRIMITIVE CELL - CENTRING CODE 1/0 VOLUME=   147.798575 - DENSITY  2.628 g/cm^3
         A              B              C           ALPHA      BETA       GAMMA 
     6.18720379     6.18720379     4.45810992    90.000000  90.000000 120.000000
 *******************************************************************************
 ATOMS IN THE ASYMMETRIC UNIT    4 - ATOMS IN THE UNIT CELL:   12
     ATOM                 X/A                 Y/B                 Z/C    
 *******************************************************************************
      1 T  11 NA   -3.005334583639E-01 -3.005334583639E-01  0.000000000000E+00
      2 F  11 NA    3.005334583639E-01 -2.960568553394E-17  0.000000000000E+00
      3 F  11 NA    6.281053603740E-18  3.005334583639E-01  0.000000000000E+00
      4 T  11 NA    3.652323362649E-01  3.652323362649E-01 -5.000000000000E-01
      5 F  11 NA   -3.652323362649E-01 -7.138784979192E-17 -5.000000000000E-01
      6 F  11 NA    3.564121217607E-17 -3.652323362649E-01 -5.000000000000E-01
      7 T   8 O     0.000000000000E+00  0.000000000000E+00  3.294729493403E-01
      8 F   8 O     0.000000000000E+00  0.000000000000E+00 -3.294729493403E-01
      9 T   8 O    -3.333333333333E-01  3.333333333333E-01 -1.722020636999E-01
     10 F   8 O     3.333333333333E-01 -3.333333333333E-01  1.722020636999E-01
     11 F   8 O     3.333333333333E-01 -3.333333333333E-01 -1.722020636999E-01
     12 F   8 O    -3.333333333333E-01  3.333333333333E-01  1.722020636999E-01

 T = ATOM BELONGING TO THE ASYMMETRIC UNIT

 TOTAL ENERGY(DFT)(AU)( 10) -1.4244483359521E+03     DE (AU)   -5.119E-05

 UPDATED TRUST RADIUS     0.500E+00

 SYMMETRY ALLOWED FORCES  (COORDINATE, FORCE)

    1  1.8995366E-04    2 -9.2102906E-05    3  1.0252359E-04    4 -4.4447268E-04
    5 -2.3854321E-05    6 -2.6012599E-04

 GRADIENT NORM     0.000566  GRADIENT THRESHOLD     0.500000

 EIGENVALUES OF THE ESTIMATED HESSIAN
  0.4485E-01  0.6433E-01  0.1529      0.3677      0.5332      0.9669    

 PREDICTED ENERGY CHANGE    -0.340E-06

 MAX GRADIENT      0.000444  THRESHOLD              0.000045 CONVERGED NO
 RMS GRADIENT      0.000231  THRESHOLD              0.000030 CONVERGED NO
 MAX DISPLAC.      0.001110  THRESHOLD              0.000180 CONVERGED NO
 RMS DISPLAC.      0.000594  THRESHOLD              0.000120 CONVERGED NO
 TTTTTTTTTTTTTTTTTTTTTTTTTTTTTT OPTI        TELAPSE      364.78 TCPU      355.92
 *******************************************************************************
 COORDINATE AND CELL OPTIMIZATION - POINT    4
 *******************************************************************************
 LATTICE PARAMETERS (ANGSTROMS AND DEGREES) - BOHR = 0.5291772083 ANGSTROM
 PRIMITIVE CELL - CENTRING CODE 1/0 VOLUME=   147.786560 - DENSITY  2.628 g/cm^3
         A              B              C           ALPHA      BETA       GAMMA 
     6.18675204     6.18675204     4.45839856    90.000000  90.000000 120.000000
 *******************************************************************************
 ATOMS IN THE ASYMMETRIC UNIT    4 - ATOMS IN THE UNIT CELL:   12
     ATOM                 X/A                 Y/B                 Z/C    
 *******************************************************************************
      1 T  11 NA   -3.005098396238E-01 -3.005098396238E-01  0.000000000000E+00
      2 F  11 NA    3.005098396238E-01  1.972776960234E-17  0.000000000000E+00
      3 F  11 NA    6.281053603740E-18  3.005098396238E-01  0.000000000000E+00
      4 T  11 NA    3.652229383079E-01  3.652229383079E-01 -5.000000000000E-01
      5 F  11 NA   -3.652229383079E-01 -1.527069805722E-16 -5.000000000000E-01
      6 F  11 NA    3.564121217607E-17 -3.652229383079E-01 -5.000000000000E-01
      7 T   8 O     0.000000000000E+00  0.000000000000E+00  3.294766417357E-01
      8 F   8 O     0.000000000000E+00  0.000000000000E+00 -3.294766417357E-01
      9 T   8 O    -3.333333333333E-01  3.333333333333E-01 -1.722376797401E-01
     10 F   8 O     3.333333333333E-01 -3.333333333333E-01  1.722376797401E-01
     11 F   8 O     3.333333333333E-01 -3.333333333333E-01 -1.722376797401E-01
     12 F   8 O    -3.333333333333E-01  3.333333333333E-01  1.722376797401E-01

 T = ATOM BELONGING TO THE ASYMMETRIC UNIT

 TOTAL ENERGY(DFT)(AU)( 10) -1.4244483363497E+03     DE (AU)   -3.977E-07

 UPDATED TRUST RADIUS     0.500E+00

 SYMMETRY ALLOWED FORCES  (COORDINATE, FORCE)

    1  1.5881601E-04    2 -7.6950087E-05    3  1.5624397E-04    4 -8.7664916E-05
    5 -4.7460291E-05    6 -1.4068726E-04

 GRADIENT NORM     0.000292  GRADIENT THRESHOLD     0.500000

 EIGENVALUES OF THE ESTIMATED HESSIAN
  0.4519E-01  0.5255E-01  0.9866E-01  0.3161      0.6079      0.9557    

 PREDICTED ENERGY CHANGE    -0.346E-06

 MAX GRADIENT      0.000159  THRESHOLD              0.000045 CONVERGED NO
 RMS GRADIENT      0.000119  THRESHOLD              0.000030 CONVERGED NO
 MAX DISPLAC.      0.002627  THRESHOLD              0.000180 CONVERGED NO
 RMS DISPLAC.      0.001250  THRESHOLD              0.000120 CONVERGED NO
 TTTTTTTTTTTTTTTTTTTTTTTTTTTTTT OPTI        TELAPSE      469.32 TCPU      459.80
 *******************************************************************************
 COORDINATE AND CELL OPTIMIZATION - POINT    5
 *******************************************************************************
 LATTICE PARAMETERS (ANGSTROMS AND DEGREES) - BOHR = 0.5291772083 ANGSTROM
 PRIMITIVE CELL - CENTRING CODE 1/0 VOLUME=   147.766647 - DENSITY  2.629 g/cm^3
         A              B              C           ALPHA      BETA       GAMMA 
     6.18580172     6.18580172     4.45916759    90.000000  90.000000 120.000000
 *******************************************************************************
 ATOMS IN THE ASYMMETRIC UNIT    4 - ATOMS IN THE UNIT CELL:   12
     ATOM                 X/A                 Y/B                 Z/C    
 *******************************************************************************
      1 T  11 NA   -3.004582549681E-01 -3.004582549681E-01  0.000000000000E+00
      2 F  11 NA    3.004582549681E-01 -2.513428948182E-17  0.000000000000E+00
      3 F  11 NA    6.281053603740E-18  3.004582549681E-01  0.000000000000E+00
      4 T  11 NA    3.651870600412E-01  3.651870600412E-01 -5.000000000000E-01
      5 F  11 NA   -3.651870600412E-01 -1.182037112869E-16 -5.000000000000E-01
      6 F  11 NA    3.564121217607E-17 -3.651870600412E-01 -5.000000000000E-01
      7 T   8 O     0.000000000000E+00  0.000000000000E+00  3.295076062730E-01
      8 F   8 O     0.000000000000E+00  0.000000000000E+00 -3.295076062730E-01
      9 T   8 O    -3.333333333333E-01  3.333333333333E-01 -1.722398173038E-01
     10 F   8 O     3.333333333333E-01 -3.333333333333E-01  1.722398173038E-01
     11 F   8 O     3.333333333333E-01 -3.333333333333E-01 -1.722398173038E-01
     12 F   8 O    -3.333333333333E-01  3.333333333333E-01  1.722398173038E-01

 T = ATOM BELONGING TO THE ASYMMETRIC UNIT

 TOTAL ENERGY(DFT)(AU)(  9) -1.4244483366055E+03     DE (AU)   -2.558E-07

 UPDATED TRUST RADIUS     0.500E+00

 SYMMETRY ALLOWED FORCES  (COORDINATE, FORCE)

    1  9.9883130E-05    2 -1.8891050E-05    3  1.6071840E-04    4  1.3933007E-04
    5 -2.9855251E-05    6 -9.3265168E-06

 GRADIENT NORM     0.000238  GRADIENT THRESHOLD     0.500000

 EIGENVALUES OF THE ESTIMATED HESSIAN
  0.3597E-01  0.4537E-01  0.8959E-01  0.3052      0.6921      0.9461    

 PREDICTED ENERGY CHANGE    -0.122E-06

 MAX GRADIENT      0.000161  THRESHOLD              0.000045 CONVERGED NO
 RMS GRADIENT      0.000097  THRESHOLD              0.000030 CONVERGED NO
 MAX DISPLAC.      0.001857  THRESHOLD              0.000180 CONVERGED NO
 RMS DISPLAC.      0.000893  THRESHOLD              0.000120 CONVERGED NO
 TTTTTTTTTTTTTTTTTTTTTTTTTTTTTT OPTI        TELAPSE      568.48 TCPU      558.31
 *******************************************************************************
 COORDINATE AND CELL OPTIMIZATION - POINT    6
 *******************************************************************************
 LATTICE PARAMETERS (ANGSTROMS AND DEGREES) - BOHR = 0.5291772083 ANGSTROM
 PRIMITIVE CELL - CENTRING CODE 1/0 VOLUME=   147.757640 - DENSITY  2.629 g/cm^3
         A              B              C           ALPHA      BETA       GAMMA 
     6.18520073     6.18520073     4.45976234    90.000000  90.000000 120.000000
 *******************************************************************************
 ATOMS IN THE ASYMMETRIC UNIT    4 - ATOMS IN THE UNIT CELL:   12
     ATOM                 X/A                 Y/B                 Z/C    
 *******************************************************************************
      1 T  11 NA   -3.004185127477E-01 -3.004185127477E-01  0.000000000000E+00
      2 F  11 NA    3.004185127477E-01 -7.800680209435E-18  0.000000000000E+00
      3 F  11 NA    6.281053603740E-18  3.004185127477E-01  0.000000000000E+00
      4 T  11 NA    3.651659395724E-01  3.651659395724E-01 -5.000000000000E-01
      5 F  11 NA   -3.651659395724E-01 -9.577966162019E-17 -5.000000000000E-01
      6 F  11 NA    3.564121217607E-17 -3.651659395724E-01 -5.000000000000E-01
      7 T   8 O     0.000000000000E+00  0.000000000000E+00  3.295419117239E-01
      8 F   8 O     0.000000000000E+00  0.000000000000E+00 -3.295419117239E-01
      9 T   8 O    -3.333333333333E-01  3.333333333333E-01 -1.722139470568E-01
     10 F   8 O     3.333333333333E-01 -3.333333333333E-01  1.722139470568E-01
     11 F   8 O     3.333333333333E-01 -3.333333333333E-01 -1.722139470568E-01
     12 F   8 O    -3.333333333333E-01  3.333333333333E-01  1.722139470568E-01

 T = ATOM BELONGING TO THE ASYMMETRIC UNIT

 TOTAL ENERGY(DFT)(AU)(  8) -1.4244483366282E+03     DE (AU)   -2.268E-08

 UPDATED TRUST RADIUS     0.547E-03

 SYMMETRY ALLOWED FORCES  (COORDINATE, FORCE)

    1  6.0678819E-05    2  2.3243723E-05    3  9.9405930E-05    4  1.0243943E-04
    5  1.8592368E-06    6  2.9666101E-05

 GRADIENT NORM     0.000160  GRADIENT THRESHOLD     0.500000

 EIGENVALUES OF THE ESTIMATED HESSIAN
  0.3055E-01  0.4539E-01  0.9719E-01  0.2900      0.6351      0.8466    
 NEWTON STEP ( 0.9328377322E-03) EXCEEDS TRUST RADIUS ( 0.5467302936E-03)
 LEVEL SHIFT    -0.1886678013E-01

 PREDICTED ENERGY CHANGE    -0.304E-07

 MAX GRADIENT      0.000102  THRESHOLD              0.000045 CONVERGED NO
 RMS GRADIENT      0.000065  THRESHOLD              0.000030 CONVERGED NO
 MAX DISPLAC.      0.000353  THRESHOLD              0.000180 CONVERGED NO
 RMS DISPLAC.      0.000223  THRESHOLD              0.000120 CONVERGED NO
 TTTTTTTTTTTTTTTTTTTTTTTTTTTTTT OPTI        TELAPSE      662.06 TCPU      651.28
 *******************************************************************************
 COORDINATE AND CELL OPTIMIZATION - POINT    7
 *******************************************************************************
 LATTICE PARAMETERS (ANGSTROMS AND DEGREES) - BOHR = 0.5291772083 ANGSTROM
 PRIMITIVE CELL - CENTRING CODE 1/0 VOLUME=   147.757982 - DENSITY  2.629 g/cm^3
         A              B              C           ALPHA      BETA       GAMMA 
     6.18511506     6.18511506     4.45989624    90.000000  90.000000 120.000000
 *******************************************************************************
 ATOMS IN THE ASYMMETRIC UNIT    4 - ATOMS IN THE UNIT CELL:   12
     ATOM                 X/A                 Y/B                 Z/C    
 *******************************************************************************
      1 T  11 NA   -3.004039207695E-01 -3.004039207695E-01  0.000000000000E+00
      2 F  11 NA    3.004039207695E-01 -2.224724873882E-17  0.000000000000E+00
      3 F  11 NA    6.281053603740E-18  3.004039207695E-01  0.000000000000E+00
      4 T  11 NA    3.651690771742E-01  3.651690771742E-01 -5.000000000000E-01
      5 F  11 NA   -3.651690771742E-01 -1.330569049434E-16 -5.000000000000E-01
      6 F  11 NA    3.564121217607E-17 -3.651690771742E-01 -5.000000000000E-01
      7 T   8 O     0.000000000000E+00  0.000000000000E+00  3.295564787106E-01
      8 F   8 O     0.000000000000E+00  0.000000000000E+00 -3.295564787106E-01
      9 T   8 O    -3.333333333333E-01  3.333333333333E-01 -1.722004004214E-01
     10 F   8 O     3.333333333333E-01 -3.333333333333E-01  1.722004004214E-01
     11 F   8 O     3.333333333333E-01 -3.333333333333E-01 -1.722004004214E-01
     12 F   8 O    -3.333333333333E-01  3.333333333333E-01  1.722004004214E-01

 T = ATOM BELONGING TO THE ASYMMETRIC UNIT

 TOTAL ENERGY(DFT)(AU)(  8) -1.4244483366370E+03     DE (AU)   -8.822E-09

 UPDATED TRUST RADIUS     0.547E-03

 SYMMETRY ALLOWED FORCES  (COORDINATE, FORCE)

    1  4.9105302E-05    2  2.8712387E-05    3  4.6567128E-05    4  3.6444824E-05
    5  1.3035669E-05    6  1.6199409E-05

 GRADIENT NORM     0.000085  GRADIENT THRESHOLD     0.500000

 EIGENVALUES OF THE ESTIMATED HESSIAN
  0.2971E-01  0.4545E-01  0.9774E-01  0.1787      0.6418      0.8092    
 NEWTON STEP ( 0.9268661088E-03) EXCEEDS TRUST RADIUS ( 0.5467302936E-03)
 LEVEL SHIFT    -0.1391550680E-01

 PREDICTED ENERGY CHANGE    -0.232E-07

 MAX GRADIENT      0.000049  THRESHOLD              0.000045 CONVERGED NO
 RMS GRADIENT      0.000035  THRESHOLD              0.000030 CONVERGED NO
 MAX DISPLAC.      0.000337  THRESHOLD              0.000180 CONVERGED NO
 RMS DISPLAC.      0.000223  THRESHOLD              0.000120 CONVERGED NO
 TTTTTTTTTTTTTTTTTTTTTTTTTTTTTT OPTI        TELAPSE      755.22 TCPU      743.87
 *******************************************************************************
 COORDINATE AND CELL OPTIMIZATION - POINT    8
 *******************************************************************************
 LATTICE PARAMETERS (ANGSTROMS AND DEGREES) - BOHR = 0.5291772083 ANGSTROM
 PRIMITIVE CELL - CENTRING CODE 1/0 VOLUME=   147.760407 - DENSITY  2.629 g/cm^3
         A              B              C           ALPHA      BETA       GAMMA 
     6.18508910     6.18508910     4.46000686    90.000000  90.000000 120.000000
 *******************************************************************************
 ATOMS IN THE ASYMMETRIC UNIT    4 - ATOMS IN THE UNIT CELL:   12
     ATOM                 X/A                 Y/B                 Z/C    
 *******************************************************************************
      1 T  11 NA   -3.003873161238E-01 -3.003873161238E-01  0.000000000000E+00
      2 F  11 NA    3.003873161238E-01 -1.588606076671E-17  0.000000000000E+00
      3 F  11 NA    6.281053603740E-18  3.003873161238E-01  0.000000000000E+00
      4 T  11 NA    3.651817970516E-01  3.651817970516E-01  5.000000000000E-01
      5 F  11 NA   -3.651817970516E-01 -6.242187593506E-17  5.000000000000E-01
      6 F  11 NA    3.564121217607E-17 -3.651817970516E-01  5.000000000000E-01
      7 T   8 O     0.000000000000E+00  0.000000000000E+00  3.295689618548E-01
      8 F   8 O     0.000000000000E+00  0.000000000000E+00 -3.295689618548E-01
      9 T   8 O    -3.333333333333E-01  3.333333333333E-01 -1.721898018112E-01
     10 F   8 O     3.333333333333E-01 -3.333333333333E-01  1.721898018112E-01
     11 F   8 O     3.333333333333E-01 -3.333333333333E-01 -1.721898018112E-01
     12 F   8 O    -3.333333333333E-01  3.333333333333E-01  1.721898018112E-01

 T = ATOM BELONGING TO THE ASYMMETRIC UNIT

 TOTAL ENERGY(DFT)(AU)(  9) -1.4244483366377E+03     DE (AU)   -6.378E-10

 UPDATED TRUST RADIUS     0.137E-03

 SYMMETRY ALLOWED FORCES  (COORDINATE, FORCE)

    1  3.6259642E-05    2  2.5304947E-05    3  2.3157067E-06    4 -1.1302083E-05
    5  1.5334824E-05    6  2.8671803E-06

 GRADIENT NORM     0.000048  GRADIENT THRESHOLD     0.500000

 EIGENVALUES OF THE ESTIMATED HESSIAN
  0.2796E-01  0.4554E-01  0.7547E-01  0.1416      0.7241      0.8980    
 NEWTON STEP ( 0.8425234488E-03) EXCEEDS TRUST RADIUS ( 0.1366825734E-03)
 LEVEL SHIFT    -0.1183289127E+00

 PREDICTED ENERGY CHANGE    -0.542E-08

 MAX GRADIENT      0.000036  THRESHOLD              0.000045 CONVERGED YES
 RMS GRADIENT      0.000020  THRESHOLD              0.000030 CONVERGED YES
 MAX DISPLAC.      0.000096  THRESHOLD              0.000180 CONVERGED YES
 RMS DISPLAC.      0.000056  THRESHOLD              0.000120 CONVERGED YES

 CONVERGENCE TESTS SATISFIED AFTER   8 ENERGY AND GRADIENT CALCULATIONS
 +++++++++++++++++++++++++++++++++++++++++++++++++++++++++++++++++++++++++++++++
 FINALRUN OPTION: RE-STARTING OPTIMIZATION
 +++++++++++++++++++++++++++++++++++++++++++++++++++++++++++++++++++++++++++++++
 TTTTTTTTTTTTTTTTTTTTTTTTTTTTTT OPTI        TELAPSE      854.11 TCPU      842.13
 *******************************************************************************
 COORDINATE AND CELL OPTIMIZATION - POINT    9
 *******************************************************************************
 LATTICE PARAMETERS (ANGSTROMS AND DEGREES) - BOHR = 0.5291772083 ANGSTROM
 PRIMITIVE CELL - CENTRING CODE 1/0 VOLUME=   147.761277 - DENSITY  2.629 g/cm^3
         A              B              C           ALPHA      BETA       GAMMA 
     6.18510009     6.18510009     4.46001726    90.000000  90.000000 120.000000
 *******************************************************************************
 ATOMS IN THE ASYMMETRIC UNIT    4 - ATOMS IN THE UNIT CELL:   12
     ATOM                 X/A                 Y/B                 Z/C    
 *******************************************************************************
      1 T  11 NA   -3.003825812900E-01 -3.003825812900E-01  0.000000000000E+00
      2 F  11 NA    3.003825812900E-01 -1.351944529810E-17  0.000000000000E+00
      3 F  11 NA    6.281053603740E-18  3.003825812900E-01  0.000000000000E+00
      4 T  11 NA    3.651860513296E-01  3.651860513296E-01 -5.000000000000E-01
      5 F  11 NA   -3.651860513296E-01 -2.893765028501E-17 -5.000000000000E-01
      6 F  11 NA    3.564121217607E-17 -3.651860513296E-01 -5.000000000000E-01
      7 T   8 O     0.000000000000E+00  0.000000000000E+00  3.295708689520E-01
      8 F   8 O     0.000000000000E+00  0.000000000000E+00 -3.295708689520E-01
      9 T   8 O    -3.333333333333E-01  3.333333333333E-01 -1.721890877502E-01
     10 F   8 O     3.333333333333E-01 -3.333333333333E-01  1.721890877502E-01
     11 F   8 O     3.333333333333E-01 -3.333333333333E-01 -1.721890877502E-01
     12 F   8 O    -3.333333333333E-01  3.333333333333E-01  1.721890877502E-01

 T = ATOM BELONGING TO THE ASYMMETRIC UNIT

 REFERENCE GEOMETRY WILL BE CHANGED

 TOTAL ENERGY(DFT)(AU)(  7) -1.4244482384603E+03     DE (AU)    9.818E-05

 SYMMETRY ALLOWED FORCES  (COORDINATE, FORCE)

    1  3.2045461E-05    2  6.6042292E-05    3 -9.4398799E-06    4 -7.5190605E-05
    5  4.5856098E-05    6  4.0749192E-05

 GRADIENT NORM     0.000122  GRADIENT THRESHOLD     0.500000

 HESSIAN UPDATE SKIPPED

 EIGENVALUES OF THE ESTIMATED HESSIAN
  0.2796E-01  0.4554E-01  0.7547E-01  0.1416      0.7241      0.8980    
 NEWTON STEP ( 0.1252359820E-02) EXCEEDS TRUST RADIUS ( 0.1366825734E-03)
 LEVEL SHIFT    -0.6645523234E-01

 PREDICTED ENERGY CHANGE    -0.128E-07

 MAX GRADIENT      0.000075  THRESHOLD              0.000045 CONVERGED NO
 RMS GRADIENT      0.000050  THRESHOLD              0.000030 CONVERGED NO
 MAX DISPLAC.      0.000091  THRESHOLD              0.000180 CONVERGED YES
 RMS DISPLAC.      0.000056  THRESHOLD              0.000120 CONVERGED YES
 TTTTTTTTTTTTTTTTTTTTTTTTTTTTTT OPTI        TELAPSE      947.34 TCPU      934.79
 *******************************************************************************
 COORDINATE AND CELL OPTIMIZATION - POINT   10
 *******************************************************************************
 LATTICE PARAMETERS (ANGSTROMS AND DEGREES) - BOHR = 0.5291772083 ANGSTROM
 PRIMITIVE CELL - CENTRING CODE 1/0 VOLUME=   147.762344 - DENSITY  2.629 g/cm^3
         A              B              C           ALPHA      BETA       GAMMA 
     6.18513721     6.18513721     4.45999594    90.000000  90.000000 120.000000
 *******************************************************************************
 ATOMS IN THE ASYMMETRIC UNIT    4 - ATOMS IN THE UNIT CELL:   12
     ATOM                 X/A                 Y/B                 Z/C    
 *******************************************************************************
      1 T  11 NA   -3.003813709883E-01 -3.003813709883E-01  0.000000000000E+00
      2 F  11 NA    3.003813709883E-01 -1.731112840676E-18  0.000000000000E+00
      3 F  11 NA    6.281053603740E-18  3.003813709883E-01  0.000000000000E+00
      4 T  11 NA    3.651905185988E-01  3.651905185988E-01  5.000000000000E-01
      5 F  11 NA   -3.651905185988E-01 -5.649123093804E-17  5.000000000000E-01
      6 F  11 NA    3.564121217607E-17 -3.651905185988E-01  5.000000000000E-01
      7 T   8 O     0.000000000000E+00  0.000000000000E+00  3.295709462092E-01
      8 F   8 O     0.000000000000E+00  0.000000000000E+00 -3.295709462092E-01
      9 T   8 O    -3.333333333333E-01  3.333333333333E-01 -1.721901088760E-01
     10 F   8 O     3.333333333333E-01 -3.333333333333E-01  1.721901088760E-01
     11 F   8 O     3.333333333333E-01 -3.333333333333E-01 -1.721901088760E-01
     12 F   8 O    -3.333333333333E-01  3.333333333333E-01  1.721901088760E-01

 T = ATOM BELONGING TO THE ASYMMETRIC UNIT

 TOTAL ENERGY(DFT)(AU)(  7) -1.4244482384778E+03     DE (AU)   -1.752E-08

 UPDATED TRUST RADIUS     0.273E-03

 SYMMETRY ALLOWED FORCES  (COORDINATE, FORCE)

    1  3.1316673E-05    2  6.2064940E-05    3 -1.3894879E-05    4 -7.2166070E-05
    5  4.2768921E-05    6  3.7272185E-05

 GRADIENT NORM     0.000116  GRADIENT THRESHOLD     0.500000

 EIGENVALUES OF THE ESTIMATED HESSIAN
  0.2853E-01  0.3955E-01  0.5319E-01  0.1383      0.6143      0.8901    
 NEWTON STEP ( 0.2084266211E-02) EXCEEDS TRUST RADIUS ( 0.2733651468E-03)
 LEVEL SHIFT     0.4991430505E-03

 PREDICTED ENERGY CHANGE    -0.242E-07

 MAX GRADIENT      0.000072  THRESHOLD              0.000045 CONVERGED NO
 RMS GRADIENT      0.000047  THRESHOLD              0.000030 CONVERGED NO
 MAX DISPLAC.      0.000193  THRESHOLD              0.000180 CONVERGED NO
 RMS DISPLAC.      0.000112  THRESHOLD              0.000120 CONVERGED YES
 TTTTTTTTTTTTTTTTTTTTTTTTTTTTTT OPTI        TELAPSE     1040.36 TCPU     1027.22
 *******************************************************************************
 COORDINATE AND CELL OPTIMIZATION - POINT   11
 *******************************************************************************
 LATTICE PARAMETERS (ANGSTROMS AND DEGREES) - BOHR = 0.5291772083 ANGSTROM
 PRIMITIVE CELL - CENTRING CODE 1/0 VOLUME=   147.763873 - DENSITY  2.629 g/cm^3
         A              B              C           ALPHA      BETA       GAMMA 
     6.18520140     6.18520140     4.45994952    90.000000  90.000000 120.000000
 *******************************************************************************
 ATOMS IN THE ASYMMETRIC UNIT    4 - ATOMS IN THE UNIT CELL:   12
     ATOM                 X/A                 Y/B                 Z/C    
 *******************************************************************************
      1 T  11 NA   -3.003785479178E-01 -3.003785479178E-01  0.000000000000E+00
      2 F  11 NA    3.003785479178E-01  1.589025218733E-19  0.000000000000E+00
      3 F  11 NA    6.281053603740E-18  3.003785479178E-01  0.000000000000E+00
      4 T  11 NA    3.652000628845E-01  3.652000628845E-01 -5.000000000000E-01
      5 F  11 NA   -3.652000628845E-01 -2.111687491613E-17 -5.000000000000E-01
      6 F  11 NA    3.564121217607E-17 -3.652000628845E-01 -5.000000000000E-01
      7 T   8 O     0.000000000000E+00  0.000000000000E+00  3.295701454609E-01
      8 F   8 O     0.000000000000E+00  0.000000000000E+00 -3.295701454609E-01
      9 T   8 O    -3.333333333333E-01  3.333333333333E-01 -1.721925723660E-01
     10 F   8 O     3.333333333333E-01 -3.333333333333E-01  1.721925723660E-01
     11 F   8 O     3.333333333333E-01 -3.333333333333E-01 -1.721925723660E-01
     12 F   8 O    -3.333333333333E-01  3.333333333333E-01  1.721925723660E-01

 T = ATOM BELONGING TO THE ASYMMETRIC UNIT

 TOTAL ENERGY(DFT)(AU)(  8) -1.4244482385058E+03     DE (AU)   -2.798E-08

 UPDATED TRUST RADIUS     0.547E-03

 SYMMETRY ALLOWED FORCES  (COORDINATE, FORCE)

    1  2.9446070E-05    2  5.3766450E-05    3 -1.7305204E-05    4 -6.3586167E-05
    5  3.7028436E-05    6  3.1881486E-05

 GRADIENT NORM     0.000102  GRADIENT THRESHOLD     0.500000

 EIGENVALUES OF THE ESTIMATED HESSIAN
  0.2865E-01  0.3766E-01  0.5444E-01  0.1378      0.6122      0.8922    
 NEWTON STEP ( 0.1893095963E-02) EXCEEDS TRUST RADIUS ( 0.5467302936E-03)
 LEVEL SHIFT     0.2541053382E-01

 PREDICTED ENERGY CHANGE    -0.360E-07

 MAX GRADIENT      0.000064  THRESHOLD              0.000045 CONVERGED NO
 RMS GRADIENT      0.000042  THRESHOLD              0.000030 CONVERGED NO
 MAX DISPLAC.      0.000393  THRESHOLD              0.000180 CONVERGED NO
 RMS DISPLAC.      0.000223  THRESHOLD              0.000120 CONVERGED NO
 TTTTTTTTTTTTTTTTTTTTTTTTTTTTTT OPTI        TELAPSE     1138.33 TCPU     1124.60
 *******************************************************************************
 COORDINATE AND CELL OPTIMIZATION - POINT   12
 *******************************************************************************
 LATTICE PARAMETERS (ANGSTROMS AND DEGREES) - BOHR = 0.5291772083 ANGSTROM
 PRIMITIVE CELL - CENTRING CODE 1/0 VOLUME=   147.763987 - DENSITY  2.629 g/cm^3
         A              B              C           ALPHA      BETA       GAMMA 
     6.18529282     6.18529282     4.45982114    90.000000  90.000000 120.000000
 *******************************************************************************
 ATOMS IN THE ASYMMETRIC UNIT    4 - ATOMS IN THE UNIT CELL:   12
     ATOM                 X/A                 Y/B                 Z/C    
 *******************************************************************************
      1 T  11 NA   -3.003731745744E-01 -3.003731745744E-01  0.000000000000E+00
      2 F  11 NA    3.003731745744E-01  9.171461365060E-18  0.000000000000E+00
      3 F  11 NA    6.281053603740E-18  3.003731745744E-01  0.000000000000E+00
      4 T  11 NA    3.652194744086E-01  3.652194744086E-01 -5.000000000000E-01
      5 F  11 NA   -3.652194744086E-01 -5.846267901340E-18 -5.000000000000E-01
      6 F  11 NA    3.564121217607E-17 -3.652194744086E-01 -5.000000000000E-01
      7 T   8 O     0.000000000000E+00  0.000000000000E+00  3.295671653731E-01
      8 F   8 O     0.000000000000E+00  0.000000000000E+00 -3.295671653731E-01
      9 T   8 O    -3.333333333333E-01  3.333333333333E-01 -1.721978214799E-01
     10 F   8 O     3.333333333333E-01 -3.333333333333E-01  1.721978214799E-01
     11 F   8 O     3.333333333333E-01 -3.333333333333E-01 -1.721978214799E-01
     12 F   8 O    -3.333333333333E-01  3.333333333333E-01  1.721978214799E-01

 T = ATOM BELONGING TO THE ASYMMETRIC UNIT

 TOTAL ENERGY(DFT)(AU)(  8) -1.4244482385372E+03     DE (AU)   -3.138E-08

 UPDATED TRUST RADIUS     0.109E-02

 SYMMETRY ALLOWED FORCES  (COORDINATE, FORCE)

    1  2.6738391E-05    2  3.7413500E-05    3 -2.2122297E-05    4 -5.2903091E-05
    5  3.2385877E-05    6  1.9887012E-05

 GRADIENT NORM     0.000083  GRADIENT THRESHOLD     0.500000

 EIGENVALUES OF THE ESTIMATED HESSIAN
  0.2866E-01  0.3642E-01  0.5495E-01  0.1378      0.6150      0.8953    
 NEWTON STEP ( 0.1400222303E-02) EXCEEDS TRUST RADIUS ( 0.1093460587E-02)
 LEVEL SHIFT     0.2865387290E-01

 PREDICTED ENERGY CHANGE    -0.351E-07

 MAX GRADIENT      0.000053  THRESHOLD              0.000045 CONVERGED NO
 RMS GRADIENT      0.000034  THRESHOLD              0.000030 CONVERGED NO
 MAX DISPLAC.      0.000765  THRESHOLD              0.000180 CONVERGED NO
 RMS DISPLAC.      0.000446  THRESHOLD              0.000120 CONVERGED NO

 WARNINGWARNINGWARNINGWARNINGWARNINGWARNINGWARNINGWARNINGWARNINGWARNINGWARNING

 FLAT SURFACE - NO CHANGE IN ENERGY FOR   4 STEPS
 CONVERGENCE TESTS NOT SATISFIED AFTER  12 ENERGY AND GRADIENT CALCULATIONS

 WARNINGWARNINGWARNINGWARNINGWARNINGWARNINGWARNINGWARNINGWARNINGWARNINGWARNING

 +++++++++++++++++++++++++++++++++++++++++++++++++++++++++++++++++++++++++++++++
 FINALRUN OPTION: RE-STARTING OPTIMIZATION
 +++++++++++++++++++++++++++++++++++++++++++++++++++++++++++++++++++++++++++++++
 TTTTTTTTTTTTTTTTTTTTTTTTTTTTTT OPTI        TELAPSE     1236.42 TCPU     1222.10
 *******************************************************************************
 COORDINATE AND CELL OPTIMIZATION - POINT   13
 *******************************************************************************
 LATTICE PARAMETERS (ANGSTROMS AND DEGREES) - BOHR = 0.5291772083 ANGSTROM
 PRIMITIVE CELL - CENTRING CODE 1/0 VOLUME=   147.762378 - DENSITY  2.629 g/cm^3
         A              B              C           ALPHA      BETA       GAMMA 
     6.18546620     6.18546620     4.45952256    90.000000  90.000000 120.000000
 *******************************************************************************
 ATOMS IN THE ASYMMETRIC UNIT    4 - ATOMS IN THE UNIT CELL:   12
     ATOM                 X/A                 Y/B                 Z/C    
 *******************************************************************************
      1 T  11 NA   -3.003636107328E-01 -3.003636107328E-01  0.000000000000E+00
      2 F  11 NA    3.003636107328E-01  2.236103752623E-17  0.000000000000E+00
      3 F  11 NA    6.281053603740E-18  3.003636107328E-01  0.000000000000E+00
      4 T  11 NA    3.652550312255E-01  3.652550312255E-01 -5.000000000000E-01
      5 F  11 NA   -3.652550312255E-01 -5.983331705939E-17 -5.000000000000E-01
      6 F  11 NA    3.564121217607E-17 -3.652550312255E-01 -5.000000000000E-01
      7 T   8 O     0.000000000000E+00  0.000000000000E+00  3.295586394001E-01
      8 F   8 O     0.000000000000E+00  0.000000000000E+00 -3.295586394001E-01
      9 T   8 O    -3.333333333333E-01  3.333333333333E-01 -1.722094501619E-01
     10 F   8 O     3.333333333333E-01 -3.333333333333E-01  1.722094501619E-01
     11 F   8 O     3.333333333333E-01 -3.333333333333E-01 -1.722094501619E-01
     12 F   8 O    -3.333333333333E-01  3.333333333333E-01  1.722094501619E-01

 T = ATOM BELONGING TO THE ASYMMETRIC UNIT

 REFERENCE GEOMETRY WILL BE CHANGED

 TOTAL ENERGY(DFT)(AU)(  7) -1.4244482391692E+03     DE (AU)   -6.320E-07

 SYMMETRY ALLOWED FORCES  (COORDINATE, FORCE)

    1  2.1092874E-05    2  7.2925931E-06    3 -2.5373734E-05    4 -3.4681128E-05
    5  2.6605475E-05    6 -5.5539562E-06

 GRADIENT NORM     0.000056  GRADIENT THRESHOLD     0.500000

 HESSIAN UPDATE SKIPPED

 EIGENVALUES OF THE ESTIMATED HESSIAN
  0.2866E-01  0.3642E-01  0.5495E-01  0.1378      0.6150      0.8953    

 PREDICTED ENERGY CHANGE    -0.873E-08

 MAX GRADIENT      0.000035  THRESHOLD              0.000045 CONVERGED YES
 RMS GRADIENT      0.000023  THRESHOLD              0.000030 CONVERGED YES
 MAX DISPLAC.      0.000388  THRESHOLD              0.000180 CONVERGED NO
 RMS DISPLAC.      0.000216  THRESHOLD              0.000120 CONVERGED NO
 TTTTTTTTTTTTTTTTTTTTTTTTTTTTTT OPTI        TELAPSE     1329.83 TCPU     1314.94
 *******************************************************************************
 COORDINATE AND CELL OPTIMIZATION - POINT   14
 *******************************************************************************
 LATTICE PARAMETERS (ANGSTROMS AND DEGREES) - BOHR = 0.5291772083 ANGSTROM
 PRIMITIVE CELL - CENTRING CODE 1/0 VOLUME=   147.771556 - DENSITY  2.628 g/cm^3
[...]
   25-  25      292.4605 (A'1)    1.09    0.00    0.00    1.09    0.00    3.82
   26-  27      296.5660 (E" )    0.00    0.00   51.66    0.00   51.66    0.00
   28-  29      310.2132 (E' )    1.16    1.16    0.00    1.16    0.00    0.00
   30-  31      321.9513 (E" )    0.00    0.00    0.62    0.00    0.62    0.00
   32-  33      333.3267 (E' )    1.05    1.05    0.00    1.05    0.00    0.00
   34-  34      873.5881 (A'1)    0.94    0.00    0.00    0.94    0.00 1000.00
   36-  36      921.0103 (A'1)    0.00    0.00    0.00    0.00    0.00  452.24

 <RAMAN><RAMAN><RAMAN><RAMAN><RAMAN><RAMAN><RAMAN><RAMAN><RAMAN><RAMAN><RAMAN>
 <RAMAN><RAMAN><RAMAN><RAMAN><RAMAN><RAMAN><RAMAN><RAMAN><RAMAN><RAMAN><RAMAN>


 NORMAL MODES NORMALIZED TO CLASSICAL AMPLITUDES (IN BOHR)

 FREQ(CM**-1)      0.00      0.00      0.00    146.07    166.34    180.17

 AT.   1 NA X     0.0000   -0.0566   -0.0327    0.0000    0.0000    0.0000
            Y     0.0000    0.0327   -0.0566    0.0000    0.0000    0.0000
            Z     0.0654    0.0000    0.0000    0.0000   -0.0110   -0.0116
 AT.   2 NA X     0.0000   -0.0566   -0.0327    0.0000    0.0000    0.0000
            Y     0.0000    0.0327   -0.0566    0.0000    0.0000    0.0000
            Z     0.0654    0.0000    0.0000    0.0000   -0.0110    0.0116
 AT.   3 NA X     0.0000   -0.0566   -0.0327    0.0000    0.0000    0.0000
            Y     0.0000    0.0327   -0.0566    0.0000    0.0000    0.0000
            Z     0.0654    0.0000    0.0000    0.0000   -0.0110    0.0000
 AT.   4 NA X     0.0000   -0.0566   -0.0327    0.0000    0.0000    0.0000
            Y     0.0000    0.0327   -0.0566    0.0000    0.0000    0.0000
            Z     0.0654    0.0000    0.0000    0.0000   -0.0131   -0.1179
 AT.   5 NA X     0.0000   -0.0566   -0.0327    0.0000    0.0000    0.0000
            Y     0.0000    0.0327   -0.0566    0.0000    0.0000    0.0000
            Z     0.0654    0.0000    0.0000    0.0000   -0.0131    0.1179
 AT.   6 NA X     0.0000   -0.0566   -0.0327    0.0000    0.0000    0.0000
            Y     0.0000    0.0327   -0.0566    0.0000    0.0000    0.0000
            Z     0.0654    0.0000    0.0000    0.0000   -0.0131    0.0000
 AT.   7 O  X     0.0000   -0.0566   -0.0327    0.0000    0.0000   -0.0267
            Y     0.0000    0.0327   -0.0566    0.0000    0.0000    0.0000
            Z     0.0654    0.0000    0.0000    0.0000   -0.1013    0.0000
 AT.   8 O  X     0.0000   -0.0566   -0.0327    0.0000    0.0000    0.0267
            Y     0.0000    0.0327   -0.0566    0.0000    0.0000    0.0000
            Z     0.0654    0.0000    0.0000    0.0000   -0.1013    0.0000
 AT.   9 O  X     0.0000   -0.0566   -0.0327    0.0000    0.0000    0.0004
            Y     0.0000    0.0327   -0.0566    0.0000    0.0000    0.0010
            Z     0.0654    0.0000    0.0000   -0.1135    0.0766    0.0000
 AT.  10 O  X     0.0000   -0.0566   -0.0327    0.0000    0.0000   -0.0004
            Y     0.0000    0.0327   -0.0566    0.0000    0.0000    0.0010
            Z     0.0654    0.0000    0.0000    0.1135    0.0766    0.0000
 AT.  11 O  X     0.0000   -0.0566   -0.0327    0.0000    0.0000    0.0004
            Y     0.0000    0.0327   -0.0566    0.0000    0.0000   -0.0010
            Z     0.0654    0.0000    0.0000    0.1135    0.0766    0.0000
 AT.  12 O  X     0.0000   -0.0566   -0.0327    0.0000    0.0000   -0.0004
            Y     0.0000    0.0327   -0.0566    0.0000    0.0000   -0.0010
            Z     0.0654    0.0000    0.0000   -0.1135    0.0766    0.0000

 FREQ(CM**-1)    180.17    183.06    183.06    192.19    194.23    196.81

 AT.   1 NA X     0.0000    0.0324    0.0338   -0.0411    0.0325    0.0000
            Y     0.0000   -0.0036    0.0324   -0.0237   -0.0563    0.0000
            Z    -0.0067    0.0000    0.0000    0.0000    0.0000   -0.1072
 AT.   2 NA X     0.0000    0.0455    0.0111    0.0411    0.0325    0.0000
            Y     0.0000   -0.0262    0.0193   -0.0237    0.0563    0.0000
            Z    -0.0067    0.0000    0.0000    0.0000    0.0000    0.1072
 AT.   3 NA X     0.0000    0.0193    0.0111    0.0000   -0.0650    0.0000
            Y     0.0000   -0.0262    0.0455    0.0474   -0.0000    0.0000
            Z     0.0134    0.0000    0.0000    0.0000    0.0000    0.0000
 AT.   4 NA X     0.0000   -0.0535    0.0292   -0.0715   -0.0345    0.0000
            Y     0.0000    0.0910   -0.0535   -0.0413    0.0597    0.0000
            Z    -0.0681    0.0000    0.0000    0.0000    0.0000    0.0139
 AT.   5 NA X     0.0000   -0.0014   -0.0609    0.0715   -0.0345    0.0000
            Y     0.0000    0.0008   -0.1055   -0.0413   -0.0597    0.0000
            Z    -0.0681    0.0000    0.0000    0.0000    0.0000   -0.0139
 AT.   6 NA X     0.0000   -0.1055   -0.0609    0.0000    0.0689    0.0000
            Y     0.0000    0.0008   -0.0014    0.0826    0.0000    0.0000
            Z     0.1361    0.0000    0.0000    0.0000    0.0000    0.0000
 AT.   7 O  X     0.0000    0.0136    0.0079    0.0000    0.0000   -0.0236
            Y    -0.0267   -0.0079    0.0136    0.0000    0.0000    0.0000
            Z     0.0000    0.0000    0.0000   -0.0037    0.0000    0.0000
 AT.   8 O  X     0.0000    0.0136    0.0079    0.0000    0.0000    0.0236
            Y     0.0267   -0.0079    0.0136    0.0000    0.0000    0.0000
            Z     0.0000    0.0000    0.0000    0.0037    0.0000    0.0000
 AT.   9 O  X    -0.0010    0.0197    0.0026    0.0000    0.0000   -0.0188
            Y     0.0004   -0.0026    0.0197    0.0000    0.0000   -0.0231
            Z     0.0000    0.0000    0.0000   -0.0022   -0.0035    0.0000
 AT.  10 O  X    -0.0010    0.0121    0.0158    0.0000    0.0000    0.0188
            Y    -0.0004   -0.0158    0.0121    0.0000    0.0000   -0.0231
            Z     0.0000    0.0000    0.0000    0.0022   -0.0035    0.0000
 AT.  11 O  X     0.0010    0.0121    0.0158    0.0000    0.0000   -0.0188
            Y     0.0004   -0.0158    0.0121    0.0000    0.0000    0.0231
            Z     0.0000    0.0000    0.0000   -0.0022    0.0035    0.0000
 AT.  12 O  X     0.0010    0.0197    0.0026    0.0000    0.0000    0.0188
            Y    -0.0004   -0.0026    0.0197    0.0000    0.0000    0.0231
            Z     0.0000    0.0000    0.0000    0.0022    0.0035    0.0000

 FREQ(CM**-1)    196.81    214.72    227.30    227.30    228.17    228.17

 AT.   1 NA X     0.0000    0.0000    0.0263    0.0062    0.0041    0.0751
            Y     0.0000    0.0000   -0.0242    0.0263    0.0703    0.0041
            Z    -0.0619    0.0161    0.0000    0.0000    0.0000    0.0000
 AT.   2 NA X     0.0000    0.0000    0.0185    0.0197    0.0671   -0.0340
            Y     0.0000    0.0000   -0.0107    0.0341   -0.0388   -0.0588
            Z    -0.0619    0.0161    0.0000    0.0000    0.0000    0.0000
 AT.   3 NA X     0.0000    0.0000    0.0341    0.0197   -0.0588   -0.0340
            Y     0.0000    0.0000   -0.0107    0.0185   -0.0388    0.0671
            Z     0.1237    0.0161    0.0000    0.0000    0.0000    0.0000
 AT.   4 NA X     0.0000    0.0000   -0.0375   -0.0861    0.0027   -0.0190
            Y     0.0000    0.0000   -0.0428   -0.0375   -0.0220    0.0027
            Z     0.0080    0.0582    0.0000    0.0000    0.0000    0.0000
 AT.   5 NA X     0.0000    0.0000   -0.0933    0.0106   -0.0151    0.0118
            Y     0.0000    0.0000    0.0539    0.0183    0.0087    0.0204
            Z     0.0080    0.0582    0.0000    0.0000    0.0000    0.0000
 AT.   6 NA X     0.0000    0.0000    0.0183    0.0106    0.0204    0.0118
            Y     0.0000    0.0000    0.0539   -0.0933    0.0087   -0.0151
            Z    -0.0161    0.0582    0.0000    0.0000    0.0000    0.0000
 AT.   7 O  X     0.0000    0.0000   -0.0145   -0.0084    0.0086    0.0050
            Y    -0.0236    0.0000    0.0084   -0.0145   -0.0050    0.0086
            Z     0.0000   -0.0804    0.0000    0.0000    0.0000    0.0000
 AT.   8 O  X     0.0000    0.0000   -0.0145   -0.0084    0.0086    0.0050
            Y     0.0236    0.0000    0.0084   -0.0145   -0.0050    0.0086
            Z     0.0000   -0.0804    0.0000    0.0000    0.0000    0.0000
 AT.   9 O  X     0.0231    0.0000    0.0153    0.0182    0.0098   -0.0438
            Y    -0.0188    0.0000   -0.0182    0.0153    0.0438    0.0098
            Z     0.0000   -0.0399    0.0000    0.0000    0.0000    0.0000
 AT.  10 O  X     0.0231    0.0000    0.0234    0.0041   -0.0330    0.0303
            Y     0.0188    0.0000   -0.0041    0.0234   -0.0303   -0.0330
            Z     0.0000   -0.0399    0.0000    0.0000    0.0000    0.0000
 AT.  11 O  X    -0.0231    0.0000    0.0234    0.0041   -0.0330    0.0303
            Y    -0.0188    0.0000   -0.0041    0.0234   -0.0303   -0.0330
            Z     0.0000   -0.0399    0.0000    0.0000    0.0000    0.0000
 AT.  12 O  X    -0.0231    0.0000    0.0153    0.0182    0.0098   -0.0438
            Y     0.0188    0.0000   -0.0182    0.0153    0.0438    0.0098
            Z     0.0000   -0.0399    0.0000    0.0000    0.0000    0.0000

 FREQ(CM**-1)    235.84    235.84    272.02    285.95    289.13    289.13

 AT.   1 NA X     0.0000    0.0000    0.0000    0.0284   -0.0239   -0.0165
            Y     0.0000    0.0000    0.0000   -0.0492    0.0111   -0.0239
            Z     0.0088    0.0051   -0.0652    0.0000    0.0000    0.0000
 AT.   2 NA X     0.0000    0.0000    0.0000    0.0284   -0.0262   -0.0124
            Y     0.0000    0.0000    0.0000    0.0492    0.0151   -0.0216
            Z    -0.0088    0.0051   -0.0652    0.0000    0.0000    0.0000
 AT.   3 NA X     0.0000    0.0000    0.0000   -0.0568   -0.0216   -0.0124
            Y     0.0000    0.0000    0.0000   -0.0000    0.0151   -0.0262
            Z     0.0000   -0.0101   -0.0652    0.0000    0.0000    0.0000
 AT.   4 NA X     0.0000    0.0000    0.0000    0.0268   -0.0158   -0.0210
            Y     0.0000    0.0000    0.0000   -0.0464   -0.0027   -0.0158
            Z     0.0168    0.0097    0.0417    0.0000    0.0000    0.0000
 AT.   5 NA X     0.0000    0.0000    0.0000    0.0268   -0.0261   -0.0032
            Y     0.0000    0.0000    0.0000    0.0464    0.0151   -0.0055
            Z    -0.0168    0.0097    0.0417    0.0000    0.0000    0.0000
 AT.   6 NA X     0.0000    0.0000    0.0000   -0.0536   -0.0055   -0.0032
            Y     0.0000    0.0000    0.0000   -0.0000    0.0151   -0.0261
            Z     0.0000   -0.0194    0.0417    0.0000    0.0000    0.0000
 AT.   7 O  X    -0.1107    0.0000    0.0000    0.0000    0.0874    0.0505
            Y     0.0000   -0.1107    0.0000    0.0000   -0.0505    0.0874
            Z     0.0000    0.0000    0.0238    0.0000    0.0000    0.0000
 AT.   8 O  X     0.1107    0.0000    0.0000    0.0000    0.0874    0.0505
            Y     0.0000    0.1107    0.0000    0.0000   -0.0505    0.0874
            Z     0.0000    0.0000    0.0238    0.0000    0.0000    0.0000
 AT.   9 O  X     0.0398   -0.0024    0.0000    0.0000   -0.0052    0.0068
            Y     0.0024    0.0398    0.0000    0.0000   -0.0068   -0.0052
            Z     0.0000    0.0000    0.0133   -0.0018    0.0000    0.0000
 AT.  10 O  X    -0.0398   -0.0024    0.0000    0.0000    0.0033   -0.0079
            Y     0.0024   -0.0398    0.0000    0.0000    0.0079    0.0033
            Z     0.0000    0.0000    0.0133   -0.0018    0.0000    0.0000
 AT.  11 O  X     0.0398    0.0024    0.0000    0.0000    0.0033   -0.0079
            Y    -0.0024    0.0398    0.0000    0.0000    0.0079    0.0033
            Z     0.0000    0.0000    0.0133    0.0018    0.0000    0.0000
 AT.  12 O  X    -0.0398    0.0024    0.0000    0.0000   -0.0052    0.0068
            Y    -0.0024   -0.0398    0.0000    0.0000   -0.0068   -0.0052
            Z     0.0000    0.0000    0.0133    0.0018    0.0000    0.0000

 FREQ(CM**-1)    292.46    296.57    296.57    310.21    310.21    321.95

 AT.   1 NA X     0.0580    0.0000    0.0000    0.0327    0.0249    0.0000
            Y     0.0335    0.0000    0.0000   -0.0129    0.0327    0.0000
            Z     0.0000   -0.0204   -0.0118    0.0000    0.0000    0.0245
 AT.   2 NA X    -0.0580    0.0000    0.0000    0.0380    0.0159    0.0000
            Y     0.0335    0.0000    0.0000   -0.0219    0.0275    0.0000
            Z     0.0000    0.0204   -0.0118    0.0000    0.0000   -0.0245
 AT.   3 NA X     0.0000    0.0000    0.0000    0.0275    0.0159    0.0000
            Y    -0.0669    0.0000    0.0000   -0.0219    0.0380    0.0000
            Z     0.0000    0.0000    0.0235    0.0000    0.0000    0.0000
 AT.   4 NA X    -0.0334    0.0000    0.0000    0.0045    0.0007    0.0000
            Y    -0.0193    0.0000    0.0000   -0.0045    0.0045    0.0000
            Z     0.0000   -0.0050   -0.0029    0.0000    0.0000   -0.0023
 AT.   5 NA X     0.0334    0.0000    0.0000    0.0028    0.0036    0.0000
            Y    -0.0193    0.0000    0.0000   -0.0016    0.0062    0.0000
            Z     0.0000    0.0050   -0.0029    0.0000    0.0000    0.0023
 AT.   6 NA X     0.0000    0.0000    0.0000    0.0062    0.0036    0.0000
            Y     0.0385    0.0000    0.0000   -0.0016    0.0028    0.0000
            Z     0.0000    0.0000    0.0058    0.0000    0.0000    0.0000
 AT.   7 O  X     0.0000    0.0458    0.0000    0.0146    0.0084   -0.0063
            Y     0.0000    0.0000    0.0458   -0.0084    0.0146    0.0000
            Z     0.0038    0.0000    0.0000    0.0000    0.0000    0.0000
 AT.   8 O  X     0.0000   -0.0458    0.0000    0.0146    0.0084    0.0063
            Y     0.0000    0.0000   -0.0458   -0.0084    0.0146    0.0000
            Z    -0.0038    0.0000    0.0000    0.0000    0.0000    0.0000
 AT.   9 O  X     0.0000    0.0692    0.0139   -0.0655    0.0040   -0.0076
            Y     0.0000   -0.0139    0.0692   -0.0040   -0.0655   -0.0730
            Z     0.0003    0.0000    0.0000    0.0000    0.0000    0.0000
 AT.  10 O  X     0.0000   -0.0692    0.0139   -0.0293   -0.0587    0.0076
            Y     0.0000   -0.0139   -0.0692    0.0587   -0.0293   -0.0730
            Z    -0.0003    0.0000    0.0000    0.0000    0.0000    0.0000
 AT.  11 O  X     0.0000    0.0692   -0.0139   -0.0293   -0.0587   -0.0076
            Y     0.0000    0.0139    0.0692    0.0587   -0.0293    0.0730
            Z     0.0003    0.0000    0.0000    0.0000    0.0000    0.0000
 AT.  12 O  X     0.0000   -0.0692   -0.0139   -0.0655    0.0040    0.0076
            Y     0.0000    0.0139   -0.0692   -0.0040   -0.0655    0.0730
            Z    -0.0003    0.0000    0.0000    0.0000    0.0000    0.0000

 FREQ(CM**-1)    321.95    333.33    333.33    873.59    884.76    921.01

 AT.   1 NA X     0.0000    0.0148   -0.0288    0.0006   -0.0009   -0.0016
            Y     0.0000   -0.0459    0.0148    0.0003    0.0016   -0.0009
            Z     0.0141    0.0000    0.0000    0.0000    0.0000    0.0000
 AT.   2 NA X     0.0000   -0.0175    0.0272   -0.0006   -0.0009    0.0016
            Y     0.0000    0.0101    0.0472    0.0003   -0.0016   -0.0009
            Z     0.0141    0.0000    0.0000    0.0000    0.0000    0.0000
 AT.   3 NA X     0.0000    0.0472    0.0272    0.0000    0.0018    0.0000
            Y     0.0000    0.0101   -0.0175   -0.0007    0.0000    0.0018
            Z    -0.0282    0.0000    0.0000    0.0000    0.0000    0.0000
 AT.   4 NA X     0.0000   -0.0005   -0.0032    0.0007    0.0002   -0.0002
            Y     0.0000   -0.0026   -0.0005    0.0004   -0.0004   -0.0001
            Z    -0.0013    0.0000    0.0000    0.0000    0.0000    0.0000
 AT.   5 NA X     0.0000   -0.0030    0.0012   -0.0007    0.0002    0.0002
            Y     0.0000    0.0017    0.0020    0.0004    0.0004   -0.0001
            Z    -0.0013    0.0000    0.0000    0.0000    0.0000    0.0000
 AT.   6 NA X     0.0000    0.0020    0.0012    0.0000   -0.0005    0.0000
            Y     0.0000    0.0017   -0.0030   -0.0008   -0.0000    0.0003
            Z     0.0027    0.0000    0.0000    0.0000    0.0000    0.0000
 AT.   7 O  X     0.0000    0.0136    0.0078    0.0000    0.0000    0.0000
            Y    -0.0063   -0.0078    0.0136    0.0000    0.0000    0.0000
            Z     0.0000    0.0000    0.0000   -0.0001    0.0000    0.0639
 AT.   8 O  X     0.0000    0.0136    0.0078    0.0000    0.0000    0.0000
            Y     0.0063   -0.0078    0.0136    0.0000    0.0000    0.0000
            Z     0.0000    0.0000    0.0000    0.0001    0.0000   -0.0639
 AT.   9 O  X     0.0730    0.0053   -0.0605    0.0000    0.0000    0.0000
            Y    -0.0076    0.0605    0.0053    0.0000    0.0000    0.0000
            Z     0.0000    0.0000    0.0000   -0.0464   -0.0461   -0.0001
 AT.  10 O  X     0.0730   -0.0498    0.0349    0.0000    0.0000    0.0000
            Y     0.0076   -0.0349   -0.0498    0.0000    0.0000    0.0000
            Z     0.0000    0.0000    0.0000    0.0464   -0.0461    0.0001
 AT.  11 O  X    -0.0730   -0.0498    0.0349    0.0000    0.0000    0.0000
            Y    -0.0076   -0.0349   -0.0498    0.0000    0.0000    0.0000
            Z     0.0000    0.0000    0.0000   -0.0464    0.0461   -0.0001
 AT.  12 O  X    -0.0730    0.0053   -0.0605    0.0000    0.0000    0.0000
            Y     0.0076    0.0605    0.0053    0.0000    0.0000    0.0000
            Z     0.0000    0.0000    0.0000    0.0464    0.0461    0.0001

 *******************************************************************************

 VIBRATIONAL TEMPERATURES (K) [MODE NUMBER;IRREP]

 TO MODES
   210.2 [   4;A"1]   239.3 [   5;A"2]   259.2 [   6;E" ]   259.2 [   7;E" ]
   263.4 [   8;E' ]   263.4 [   9;E' ]   276.5 [  10;A'1]   279.5 [  11;A'2]
   283.2 [  12;E" ]   283.2 [  13;E" ]   308.9 [  14;A"2]   327.0 [  15;E' ]
   327.0 [  16;E' ]   328.3 [  17;E' ]   328.3 [  18;E' ]   339.3 [  19;E" ]
   339.3 [  20;E" ]   391.4 [  21;A"2]   411.4 [  22;A'2]   416.0 [  23;E' ]
   416.0 [  24;E' ]   420.8 [  25;A'1]   426.7 [  26;E" ]   426.7 [  27;E" ]
   446.3 [  28;E' ]   446.3 [  29;E' ]   463.2 [  30;E" ]   463.2 [  31;E" ]
   479.6 [  32;E' ]   479.6 [  33;E' ]  1256.9 [  34;A'1]  1273.0 [  35;A'2]
  1325.1 [  36;A'1]

 *******************************************************************************

 HARMONIC VIBRATIONAL CONTRIBUTIONS TO THERMODYNAMIC FUNCTIONS AT GIVEN
 TEMPERATURE AND PRESSURE:

 (EL = ELECTRONIC ENERGY
  E0 = ZERO-POINT ENERGY
  ET = THERMAL CONTRIBUTION TO THE VIBRATIONAL ENERGY
  PV = PRESSURE * VOLUME
  TS = TEMPERATURE * ENTROPY)

                          AU/CELL             EV/CELL                 KJ/MOL
 EL            :   -1424.448239351771  -38761.207174456009    -3739888.32537223
 E0            :       0.022891994220       0.622922831506          60.10292235


 *******************************************************************************

 THERMODYNAMIC FUNCTIONS WITH VIBRATIONAL CONTRIBUTIONS

 AT (T =  298.15 K, P =   0.10132500E+00 MPA):

                          AU/CELL             EV/CELL                 KJ/MOL
 ET            :       0.015095581773       0.410771663263          39.63344436
 PV            :       0.000003434359       0.000093453652           0.00901691
 TS            :       0.026150118758       0.711580907486          68.65712712
 ET+PV-TS      :      -0.011051102627      -0.300715790571         -29.01466586
 EL+E0+ET+PV-TS:   -1424.436398460178  -38760.884967415070    -3739857.23711573

 OTHER THERMODYNAMIC FUNCTIONS:

                      mHARTREE/(CELL*K)     mEV/(CELL*K)              J/(MOL*K)
 ENTROPY       :       0.087707928084       2.386654058314         230.27713273
 HEAT CAPACITY :       0.086695892631       2.359115173585         227.62003402

 *******************************************************************************
 TTTTTTTTTTTTTTTTTTTTTTTTTTTTTT END         TELAPSE     7374.90 TCPU     7307.01
 EEEEEEEEEE TERMINATION  DATE 02 08 2023 TIME 18:35:35.6
