         256 PROCESSORS WORKING

         
 *******************************************************************************
 *                                                                             *
 *                               CRYSTAL23                                     *
 *                      public : 1.0.1 - October 2022                          *
 *                       HTTP://WWW.CRYSTAL.UNITO.IT                           *
 *                                                                             *
 *                              MAIN AUTHORS                                   *
 *                                                                             *
 *  R. DOVESI(1,11), V.R. SAUNDERS(2), C. ROETTI(1,11), R. ORLANDO(1,11),      *
 *  C.M. ZICOVICH-WILSON(1,3), F. PASCALE(4), B. CIVALLERI(1,11),              *
 *  K. DOLL(5), N.M. HARRISON(6), I.J. BUSH(7), Ph. D'ARCO(8),                 *
 *  M. LLUNELL(9), M. CAUSA'(10), Y. NOEL(8), L. MASCHIO(1,11), A. ERBA(1,11)  *
 *  M. RE'RAT(14), S. CASASSA(1,11), B.G. SEARLE(2), J.K. DESMARAIS(1)         *
 *                                                                             *
 *        CONTRIBUTIONS TO THE CODE HAVE ALSO BEEN GIVEN BY                    *
 *                                                                             *
 *  M. FERRABONE(1,11), M. DE LA PIERRE(1,11), M. FERRERO(1,11),               *
 *  J. BAIMA(1,11), E. ALBANESE(1,11), M.F. PEINTINGER(12), R. BAST(13),       *
 *  B. KIRTMAN(15), V. LACIVITA(1,11), R. DEMICHELIS(1,16)                     *
 *  G. BRANDEBURG(17), S. SALUSTRO(1,11), G. SANSONE(1,11)                     *
 *  M.T. RUGGIERO(18), L.E. DAGA(1), L. DONA'(1), A. COSSARD(1)                *
 *                                                                             *
 * (1) THEORETICAL CHEMISTRY GROUP - UNIVERSITA' DI TORINO - TORINO (ITALY)    *
 * (2) SCIENTIFIC COMPUTING DEPARTMENT - STFC DARESBURY (UK)                   *
 * (3) UNIVERSIDAD AUTONOMA DEL ESTADO DE MORELOS - CUERNAVACA (MEXICO)        *
 * (4) UNIVERSITE' DE LORRAINE - NANCY (FRANCE)                                *
 * (5) UNIVERSITAET STUTTGART- STUTTGART (GERMANY)                             *
 * (6) IMPERIAL COLLEGE - LONDON (UK)                                          *
 * (7) SCIENTIFIC COMPUTING DEPARTMENT - STFC RAL (UK)                         *
 * (8) UPMC - SORBONNE UNIVERSITES - PARIS (FRANCE)                            *
 * (9) UNIVERSIDAD DE BARCELONA - BARCELONA (SPAIN)                            *
 *(10) UNIVERSITA' DI NAPOLI "FEDERICO II" - NAPOLI (ITALY)                    *
 *(11) NIS - NANOSTRUCTURED INTERFACES AND SURFACES - TORINO (ITALY)           *
 *(12) MPI FUER CHEMISCHE ENERGIEKONVERSION - MUELHEIM AN DER RUHR (GERMANY)   *
 *(13) UNIVERSITY OF TROMSO - TROMSO (NORWAY)                                  *
 *(14) UNIVERSITE' DE PAU ET DES PAYS DE L'ADOUR - PAU (FRANCE)                *
 *(15) UNIVERSITY OF CALIFORNIA SANTA BARBARA - SANTA BARBARA (USA)            *
 *(16) CURTIN UNIVERSITY - PERTH (AUSTRALIA)                                   *
 *(17) UNIVERSITY COLLEGE LONDON - LONDON (UK)                                 *
 *(18) UNIVERSITY OF VERMONT - BURLINGTON (USA)                                *
 *                                                                             *
 *******************************************************************************
 EEEEEEEEEE STARTING  DATE 25 07 2023 TIME 17:05:20.8
 ICSD_CollCode50658.cif                                                          

 CRYSTAL CALCULATION
 (INPUT ACCORDING TO THE INTERNATIONAL TABLES FOR X-RAY CRYSTALLOGRAPHY)
 CRYSTAL FAMILY                       :  HEXAGONAL   
 CRYSTAL CLASS  (GROTH - 1921)        :  DIHEXAGONAL DIPYRAMIDAL              

 SPACE GROUP (CENTROSYMMETRIC)        :  P 63/M M C      

 LATTICE PARAMETERS  (ANGSTROMS AND DEGREES) - CONVENTIONAL CELL
        A           B           C        ALPHA        BETA       GAMMA
     3.15250     3.15250     7.71000    90.00000    90.00000   120.00000


 NUMBER OF IRREDUCIBLE ATOMS IN THE CONVENTIONAL CELL:    2

 INPUT COORDINATES

 ATOM AT. N.              COORDINATES
   1   3     3.333333333330E-01  6.666666666670E-01  9.200000000000E-02
   2   8     3.333333333330E-01  6.666666666670E-01  8.330000000000E-01

 *******************************************************************************

 << INFORMATION >>: FROM NOW ON, ALL COORDINATES REFER TO THE PRIMITIVE CELL

 *******************************************************************************

 LATTICE PARAMETERS  (ANGSTROMS AND DEGREES) - PRIMITIVE CELL
       A          B          C        ALPHA      BETA     GAMMA        VOLUME
    3.15250    3.15250    7.71000    90.00000  90.00000 120.00000     66.358292

 COORDINATES OF THE EQUIVALENT ATOMS (FRACTIONAL UNITS)

 N. ATOM EQUIV AT. N.          X                  Y                  Z

   1   1   1    3 LI    3.33333333333E-01 -3.33333333333E-01  9.20000000000E-02
   2   1   2    3 LI   -3.33333333333E-01  3.33333333333E-01 -4.08000000000E-01
   3   1   3    3 LI   -3.33333333334E-01  3.33333333333E-01 -9.20000000000E-02
   4   1   4    3 LI    3.33333333333E-01 -3.33333333333E-01  4.08000000000E-01

   5   2   1    8 O     3.33333333333E-01 -3.33333333333E-01 -1.67000000000E-01
   6   2   2    8 O    -3.33333333333E-01  3.33333333333E-01  3.33000000000E-01
   7   2   3    8 O    -3.33333333334E-01  3.33333333333E-01  1.67000000000E-01
   8   2   4    8 O     3.33333333333E-01 -3.33333333333E-01 -3.33000000000E-01

 NUMBER OF SYMMETRY OPERATORS         :   24
 *******************************************************************************
 * GEOMETRY EDITING - INPUT COORDINATES ARE GIVEN IN ANGSTROM         
 *******************************************************************************

 GEOMETRY NOW FULLY CONSISTENT WITH THE GROUP

 FRQFRQFRQFRQFRQFRQFRQFRQFRQFRQFRQFRQFRQFRQFRQFRQFRQFRQFRQFRQFRQFRQFRQFRQFRQFRQ

                       FREQUENCY CALCULATION

 OPTIMIZATION PERFORMED BEFORE FREQUENCIES CALCULATION
 *******************************************************************************
 INFORMATION **** NEW DEFAULT **** FINALRUN 4 FOR GEOMETRY OPTIMIZATIONS
 INFORMATION **** NEW DEFAULT **** OPTGEOM OPTIMIZES ATOMIC COORDINATES ONLY
 INFORMATION **** NEW DEFAULT **** TOL. ON ATOMIC DISP TO REDEFINE REF. GEOMETRY: 0.8 Angs
 INFORMATION **** NEW DEFAULT **** N POINTS TO REDEFINE REF. GEOMETRY: N OF OPT DEGS OF FREEDOM
 INFORMATION **** NEW DEFAULT **** TOL. ON ENERGY TO REDEFINE REF. GEOMETRY: 10**-3*(5*N. ATOMS)
 INFORMATION **** FULLOPTG **** FULL OPTIMIZATION (ATOMS AND CELL PARAMETERS)

 IMPORTANT INFORMATION:
 THE COORDINATE SYSTEM ADOPTED IN THE OPTIMIZATION IS NOT IN
 GENERAL HOMOGENEOUS UNITS. FOR THIS REASON THE GRADIENT AND 
 HESSIAN MATRIX IN TERMS OF THIS SYSTEM ARE GIVEN WITHOUT
 UNITS. FOR MORE DETAILS SEE THE MANUAL.

 *******************************************************************************
 COMBINED CELL/ATOM OPTIMIZATION CONTROL

 INITIAL TRUST RADIUS         0.50000 MAXIMUM TRUST RADIUS               0.50000
 MAXIMUM GRADIENT COMPONENT   0.00005 MAXIMUM DISPLACEMENT COMPONENT     0.00018
 R.M.S. OF GRADIENT COMPONENT 0.00003 R.M.S. OF DISPLACEMENT COMPONENTS  0.00012
 THRESHOLD ON ENERGY CHANGE 0.100E-06 EXTRAPOLATING POLYNOMIAL ORDER           2
 MAXIMUM ALLOWED NUMBER OF STEPS   -1 SORTING OF ENERGY POINTS:               NO
 ANALYTICAL  GRADIENT                 HESSIAN UPDATING                      BFGS
 STEP SIZE NUMERICAL GRADIENT 0.00100
 INITIAL HESSIAN MATRIX: SCHLEGEL MODEL 2
 *******************************************************************************

 INFORMATION **** INPFREQ **** IR INTENSITIES EVALUATED THROUGH CPHF APPROACH
 INFORMATION **** INPFREQ **** NEW DEFAULT - IMPOSING ECKART CONDITIONS TO THE HESSIAN

 GCALCO - MAX INDICES DIRECT LATTICE VECTOR    21    21     7
 NO.OF VECTORS CREATED 6999 STARS  367 RMAX    90.60837 BOHR

 GEOMETRY FOR WAVE FUNCTION - DIMENSIONALITY OF THE SYSTEM    3
 (NON PERIODIC DIRECTION: LATTICE PARAMETER FORMALLY SET TO 500)
 *******************************************************************************
 LATTICE PARAMETERS (ANGSTROMS AND DEGREES) - BOHR = 0.5291772083 ANGSTROM
 PRIMITIVE CELL - CENTRING CODE 1/0 VOLUME=    66.358292 - DENSITY  2.303 g/cm^3
         A              B              C           ALPHA      BETA       GAMMA 
     3.15250000     3.15250000     7.71000000    90.000000  90.000000 120.000000
 *******************************************************************************
 ATOMS IN THE ASYMMETRIC UNIT    2 - ATOMS IN THE UNIT CELL:    8
     ATOM                 X/A                 Y/B                 Z/C    
 *******************************************************************************
      1 T   3 LI    3.333333333333E-01 -3.333333333333E-01  9.200000000000E-02
      2 F   3 LI   -3.333333333333E-01  3.333333333333E-01 -4.080000000000E-01
      3 F   3 LI   -3.333333333333E-01  3.333333333333E-01 -9.200000000000E-02
      4 F   3 LI    3.333333333333E-01 -3.333333333333E-01  4.080000000000E-01
      5 T   8 O     3.333333333333E-01 -3.333333333333E-01 -1.670000000000E-01
      6 F   8 O    -3.333333333333E-01  3.333333333333E-01  3.330000000000E-01
      7 F   8 O    -3.333333333333E-01  3.333333333333E-01  1.670000000000E-01
      8 F   8 O     3.333333333333E-01 -3.333333333333E-01 -3.330000000000E-01

 T = ATOM BELONGING TO THE ASYMMETRIC UNIT

 ****   24 SYMMOPS - TRANSLATORS IN FRACTIONAL UNITS
 **** MATRICES AND TRANSLATORS IN THE CRYSTALLOGRAPHIC REFERENCE FRAME
   V INV                    ROTATION MATRICES                   TRANSLATORS
   1   1  1.00  0.00  0.00  0.00  1.00  0.00  0.00  0.00  1.00  0.00  0.00  0.00
   2   2 -1.00  0.00  0.00 -0.00 -1.00  0.00  0.00  0.00  1.00  0.00  0.00  0.50
   3   4  0.00 -1.00  0.00  1.00 -1.00  0.00  0.00  0.00  1.00  0.00  0.00  0.00
   4   3 -1.00  1.00  0.00 -1.00  0.00  0.00  0.00  0.00  1.00  0.00  0.00  0.00
   5   6  1.00 -1.00  0.00  1.00 -0.00  0.00  0.00  0.00  1.00  0.00  0.00  0.50
   6   5 -0.00  1.00  0.00 -1.00  1.00  0.00  0.00  0.00  1.00  0.00  0.00  0.50
   7   7  1.00 -1.00  0.00 -0.00 -1.00  0.00  0.00  0.00 -1.00  0.00  0.00  0.00
   8   8 -1.00  0.00  0.00 -1.00  1.00  0.00  0.00  0.00 -1.00  0.00  0.00  0.00
   9   9 -0.00  1.00  0.00  1.00  0.00  0.00  0.00  0.00 -1.00  0.00  0.00  0.00
  10  10  0.00 -1.00  0.00 -1.00 -0.00  0.00  0.00  0.00 -1.00  0.00  0.00  0.50
  11  11  1.00  0.00  0.00  1.00 -1.00  0.00  0.00  0.00 -1.00  0.00  0.00  0.50
  12  12 -1.00  1.00  0.00  0.00  1.00  0.00  0.00  0.00 -1.00  0.00  0.00  0.50
  13  13 -1.00  0.00  0.00 -0.00 -1.00  0.00  0.00  0.00 -1.00  0.00  0.00  0.00
  14  14  1.00  0.00  0.00  0.00  1.00  0.00  0.00  0.00 -1.00  0.00  0.00  0.50
  15  16 -0.00  1.00  0.00 -1.00  1.00  0.00  0.00  0.00 -1.00  0.00  0.00  0.00
  16  15  1.00 -1.00  0.00  1.00 -0.00  0.00  0.00  0.00 -1.00  0.00  0.00  0.00
  17  18 -1.00  1.00  0.00 -1.00  0.00  0.00  0.00  0.00 -1.00  0.00  0.00  0.50
  18  17  0.00 -1.00  0.00  1.00 -1.00  0.00  0.00  0.00 -1.00  0.00  0.00  0.50
  19  19 -1.00  1.00  0.00  0.00  1.00  0.00  0.00  0.00  1.00  0.00  0.00  0.00
  20  20  1.00  0.00  0.00  1.00 -1.00  0.00  0.00  0.00  1.00  0.00  0.00  0.00
  21  21  0.00 -1.00  0.00 -1.00 -0.00  0.00  0.00  0.00  1.00  0.00  0.00  0.00
  22  22 -0.00  1.00  0.00  1.00  0.00  0.00  0.00  0.00  1.00  0.00  0.00  0.50
  23  23 -1.00  0.00  0.00 -1.00  1.00  0.00  0.00  0.00  1.00  0.00  0.00  0.50
  24  24  1.00 -1.00  0.00 -0.00 -1.00  0.00  0.00  0.00  1.00  0.00  0.00  0.50

 DIRECT LATTICE VECTORS CARTESIAN COMPONENTS (ANGSTROM)
          X                    Y                    Z
   0.273014508543E+01  -0.157625000000E+01   0.000000000000E+00
   0.000000000000E+00   0.315250000000E+01   0.000000000000E+00
   0.000000000000E+00   0.000000000000E+00   0.771000000000E+01


 CARTESIAN COORDINATES - PRIMITIVE CELL
 *******************************************************************************
 *      ATOM          X(ANGSTROM)         Y(ANGSTROM)         Z(ANGSTROM)
 *******************************************************************************
    1     3 LI   -1.820096723620E+00 -1.924948749954E-16  7.093200000000E-01
    2     3 LI   -9.100483618101E-01 -1.576250000000E+00 -3.145680000000E+00
    3     3 LI   -9.100483618101E-01 -1.576250000000E+00 -7.093200000000E-01
    4     3 LI   -1.820096723620E+00  4.000198936538E-17  3.145680000000E+00
    5     8 O    -1.820096723620E+00 -1.924948749954E-16 -1.287570000000E+00
    6     8 O    -9.100483618101E-01 -1.576250000000E+00  2.567430000000E+00
    7     8 O    -9.100483618101E-01 -1.576250000000E+00  1.287570000000E+00
    8     8 O    -1.820096723620E+00  4.000198936538E-17 -2.567430000000E+00

 *******************************************************************************
 LOCAL ATOMIC FUNCTIONS BASIS SET
 *******************************************************************************
   ATOM   X(AU)   Y(AU)   Z(AU)  N. TYPE  EXPONENT  S COEF   P COEF   D/F/G COEF
 *******************************************************************************
   1 LI  -3.439  -0.000   1.340
                                  1 S  
                                         6.269E+03 2.054E-04 0.000E+00 0.000E+00
                                         9.403E+02 1.592E-03 0.000E+00 0.000E+00
                                         2.142E+02 8.287E-03 0.000E+00 0.000E+00
                                         6.076E+01 3.386E-02 0.000E+00 0.000E+00
                                         1.992E+01 1.110E-01 0.000E+00 0.000E+00
                                         7.317E+00 2.745E-01 0.000E+00 0.000E+00
                                  2 S  
                                         2.972E+00 2.379E-01 0.000E+00 0.000E+00
                                         1.264E+00 3.077E-01 0.000E+00 0.000E+00
                                  3 S  
                                         5.026E-01 1.000E+00 0.000E+00 0.000E+00
                                  4 S  
                                         1.201E-01 1.000E+00 0.000E+00 0.000E+00
                           5-     7 P  
                                         1.320E-01 0.000E+00 1.000E+00 0.000E+00
   2 LI  -1.720  -2.979  -5.944
   3 LI  -1.720  -2.979  -1.340
   4 LI  -3.439   0.000   5.944
   5 O   -3.439  -0.000  -2.433
                                 29 S  
                                         2.703E+04 2.173E-04 0.000E+00 0.000E+00
                                         4.052E+03 1.684E-03 0.000E+00 0.000E+00
                                         9.223E+02 8.740E-03 0.000E+00 0.000E+00
                                         2.612E+02 3.524E-02 0.000E+00 0.000E+00
                                         8.535E+01 1.115E-01 0.000E+00 0.000E+00
                                         3.104E+01 2.559E-01 0.000E+00 0.000E+00
                                 30 S  
                                         1.226E+01 3.977E-01 0.000E+00 0.000E+00
                                         4.999E+00 2.463E-01 0.000E+00 0.000E+00
                                 31 S  
                                         1.099E+00 1.000E+00 0.000E+00 0.000E+00
                                 32 S  
                                         3.566E-01 1.000E+00 0.000E+00 0.000E+00
                          33-    35 P  
                                         6.327E+01 0.000E+00 6.069E-03 0.000E+00
                                         1.463E+01 0.000E+00 4.191E-02 0.000E+00
                                         4.450E+00 0.000E+00 1.615E-01 0.000E+00
                                         1.528E+00 0.000E+00 3.571E-01 0.000E+00
                          36-    38 P  
                                         5.490E-01 0.000E+00 1.000E+00 0.000E+00
                          39-    41 P  
                                         1.859E-01 0.000E+00 1.000E+00 0.000E+00
                          42-    46 D  
                                         4.535E-01 0.000E+00 0.000E+00 1.000E+00
   6 O   -1.720  -2.979   4.852
   7 O   -1.720  -2.979   2.433
   8 O   -3.439   0.000  -4.852
 INFORMATION **** SET_MPP **** PCRYSTAL CALCULATION
 INFORMATION **** READM2 **** NEW DEFAULT: FOCK/KS MATRIX MIXING SET TO 30 %
 INFORMATION **** READM2 **** NEW DEFAULT: FULL DIRECT SCF MODE
 INFORMATION **** READM2 **** NEW DEFAULT: COULOMB BIPOLAR BUFFER SET TO 32 Mb
 INFORMATION **** READM2 **** NEW DEFAULT: EXCHANGE BIPOLAR BUFFER SET TO 32 Mb

 *******************************************************************************
 NEW DEFAULT: DFT INTEGRATION GRID INCREASED TO XLGRID
 NEW DEFAULT: DIIS ACCELERATOR ACTIVE
 USE KEYWORD NODIIS TO TURN IT OFF
 *******************************************************************************

 INFORMATION **** RDDFTP **** MAX N. OF POINTS ALLOWED IN A BATCH FOR NUMERICAL INTEGRATION         200
 INFORMATION **** TOLINTEG **** COULOMB AND EXCHANGE SERIES TOLERANCES MODIFIED
 INFORMATION **** TOLDEE **** SCF TOL ON TOTAL ENERGY SET TO          11
 INFORMATION **** EXCHSIZE **** EXCHANGE BIPOLAR BUFFER SIZE SET TO    12012489
 INFORMATION **** MAXCYCLE **** MAX NUMBER OF SCF CYCLES SET TO         150
 *******************************************************************************
 N. OF ATOMS PER CELL         8  COULOMB OVERLAP TOL         (T1) 10**   -7
 NUMBER OF SHELLS            52  COULOMB PENETRATION TOL     (T2) 10**   -7
 NUMBER OF AO               100  EXCHANGE OVERLAP TOL        (T3) 10**   -7
 N. OF ELECTRONS PER CELL    44  EXCHANGE PSEUDO OVP (F(G))  (T4) 10**   -9
 CORE ELECTRONS PER CELL     16  EXCHANGE PSEUDO OVP (P(G))  (T5) 10**  -30
 N. OF SYMMETRY OPERATORS    24  POLE ORDER IN MONO ZONE                  4
 *******************************************************************************
 TYPE OF CALCULATION :  RESTRICTED CLOSED SHELL
 KOHN-SHAM HAMILTONIAN

 (EXCHANGE)[CORRELATION] FUNCTIONAL:(PERDEW-BURKE-ERNZERHOF)[PERDEW-BURKE-ERNZERHOF]


 HYBRID EXCHANGE - PERCENTAGE OF FOCK EXCHANGE    25.0000

 CAPPA:IS1  8;IS2  8;IS3  8; K PTS MONK NET  50; SYMMOPS:K SPACE  24;G SPACE  24

 *******************************************************************************
 MAX NUMBER OF SCF CYCLES     150  CONVERGENCE ON DELTAP        10**-21
 WEIGHT OF F(I) IN F(I+1)      30% CONVERGENCE ON ENERGY        10**-11
 SHRINK. FACT.(MONKH.)    8  8  8  NUMBER OF K POINTS IN THE IBZ     50
 SHRINKING FACTOR(GILAT NET)    8  NUMBER OF K POINTS(GILAT NET)     50
 *******************************************************************************
 *** K POINTS COORDINATES (OBLIQUE COORDINATES IN UNITS OF IS =  8)
   1-R(  0  0  0)   2-C(  1  0  0)   3-C(  2  0  0)   4-C(  3  0  0)
   5-R(  4  0  0)   6-C(  1  1  0)   7-C(  2  1  0)   8-C(  3  1  0)
   9-C(  2  2  0)  10-C(  3  2  0)  11-C(  0  0  1)  12-C(  1  0  1)
  13-C(  2  0  1)  14-C(  3  0  1)  15-C(  4  0  1)  16-C(  1  1  1)
  17-C(  2  1  1)  18-C(  3  1  1)  19-C(  2  2  1)  20-C(  3  2  1)
  21-C(  0  0  2)  22-C(  1  0  2)  23-C(  2  0  2)  24-C(  3  0  2)
  25-C(  4  0  2)  26-C(  1  1  2)  27-C(  2  1  2)  28-C(  3  1  2)
  29-C(  2  2  2)  30-C(  3  2  2)  31-C(  0  0  3)  32-C(  1  0  3)
  33-C(  2  0  3)  34-C(  3  0  3)  35-C(  4  0  3)  36-C(  1  1  3)
  37-C(  2  1  3)  38-C(  3  1  3)  39-C(  2  2  3)  40-C(  3  2  3)
  41-R(  0  0  4)  42-C(  1  0  4)  43-C(  2  0  4)  44-C(  3  0  4)
  45-R(  4  0  4)  46-C(  1  1  4)  47-C(  2  1  4)  48-C(  3  1  4)
  49-C(  2  2  4)  50-C(  3  2  4)

 DIRECT LATTICE VECTORS COMPON. (A.U.)     RECIP. LATTICE VECTORS COMPON. (A.U.) 
        X            Y            Z              X            Y            Z
    5.1592265   -2.9786808    0.0000000      1.2178541    0.0000000    0.0000000
    0.0000000    5.9573616    0.0000000      0.6089271    1.0546926   -0.0000000
    0.0000000    0.0000000   14.5697885     -0.0000000    0.0000000    0.4312475

 DISK SPACE FOR EIGENVECTORS (FTN 10)      960000 REALS

 SYMMETRY ADAPTION OF THE BLOCH FUNCTIONS ENABLED
 TTTTTTTTTTTTTTTTTTTTTTTTTTTTTT gordsh1     TELAPSE        4.31 TCPU        1.92

 MATRIX SIZE: P(G)  851420, F(G)   69860, P(G) IRR   26347, F(G) IRR    5247
 MAX G-VECTOR INDEX FOR 1- AND 2-ELECTRON INTEGRALS 863

 TTTTTTTTTTTTTTTTTTTTTTTTTTTTTT INPUT       TELAPSE        4.31 TCPU        1.93

 NEIGHBORS OF THE NON-EQUIVALENT ATOMS

 N = NUMBER OF NEIGHBORS AT DISTANCE R
    ATOM  N     R/ANG      R/AU   NEIGHBORS (ATOM LABELS AND CELL INDICES)
   1 LI   3     1.9097     3.6089    7 O    0 0 0    7 O   -1 0 0    7 O    0 1 0
   1 LI   1     1.9969     3.7736    5 O    0 0 0
   1 LI   3     2.3077     4.3608    3 LI   0 0 0    3 LI  -1 0 0    3 LI   0 1 0
   1 LI   1     2.4364     4.6041    4 LI   0 0 0
   1 LI   3     2.6010     4.9152    6 O    0 0 0    6 O   -1 0 0    6 O    0 1 0
   1 LI   6     3.1525     5.9574    1 LI  -1-1 0    1 LI   1 1 0    1 LI  -1 0 0
                                     1 LI   1 0 0    1 LI   0-1 0    1 LI   0 1 0

   5 O    1     1.2799     2.4186    8 O    0 0 0
   5 O    3     1.9097     3.6089    3 LI   0 0 0    3 LI  -1 0 0    3 LI   0 1 0
   5 O    1     1.9969     3.7736    1 LI   0 0 0
   5 O    3     2.6010     4.9152    2 LI   0 0 0    2 LI  -1 0 0    2 LI   0 1 0
   5 O    6     3.1525     5.9574    5 O   -1-1 0    5 O    1 1 0    5 O   -1 0 0
                                     5 O    1 0 0    5 O    0-1 0    5 O    0 1 0
   5 O    3     3.1534     5.9591    7 O    0 0 0    7 O   -1 0 0    7 O    0 1 0


 SYMMETRY ALLOWED ELASTIC DISTORTION 1
  0.5773503  0.0000000  0.0000000
  0.0000000  0.5773503  0.0000000
  0.0000000  0.0000000  0.5773503

 SYMMETRY ALLOWED ELASTIC DISTORTION 2
  0.4082483 -0.0000000  0.0000000
 -0.0000000  0.4082483  0.0000000
  0.0000000  0.0000000 -0.8164966

 SYMMETRY ALLOWED INTERNAL DEGREE(S) OF FREEDOM:   2
 TTTTTTTTTTTTTTTTTTTTTTTTTTTTTT SYMM        TELAPSE        4.35 TCPU        1.96
 TTTTTTTTTTTTTTTTTTTTTTTTTTTTTT INT_SCREEN  TELAPSE        4.35 TCPU        1.96

 *******************************************************************************
 *                             OPTIMIZATION STARTS                             *
 *******************************************************************************
 RECLASIFICATION OF INDICES FOR INTEGRAL CALC ACCORDING TO DIFFERENT CRITERIA:
           FIXDELTE                  FIXDELTX              FIXDELTN
          0.10000000               0.80000000                 10
 *******************************************************************************

 *******************************************************************************
 COORDINATE AND CELL OPTIMIZATION - POINT    1

 DFT PARAMETERS

     ATOM       ELECTRONS   NET CHARGE   R(ANGSTROM)
   1   3  LI      3.0000      0.0000     1.57000000
   5   8  O       8.0000      0.0000     0.74000000

 SIZE OF GRID=      14200
 TTTTTTTTTTTTTTTTTTTTTTTTTTTTTT MAKE_GRID2  TELAPSE       10.68 TCPU        8.26
 BECKE WEIGHT FUNCTION
 RADSAFE =     2.00
 TOLERANCES - DENSITY:10**- 6; POTENTIAL:10**- 9; GRID WGT:10**-14

 RADIAL INTEGRATION  - INTERVALS (POINTS,UPPER LIMIT):            1( 99,  4.0*R)

 ANGULAR INTEGRATION - INTERVALS (ACCURACY LEVEL [N. POINTS] UPPER LIMIT):
  1(  6[ 146]   0.2)  2( 11[ 302]   0.5)  3( 14[ 590]   0.9)  4( 18[1454]   3.5)
  5( 14[ 590]9999.0)
 TTTTTTTTTTTTTTTTTTTTTTTTTTTTTT INT_CALC    TELAPSE       10.70 TCPU        8.28

 *******************************************************************************
 ICSD_CollCode50658.cif                                                          
 CRYSTAL - SCF - TYPE OF CALCULATION :  RESTRICTED CLOSED SHELL
 *******************************************************************************

 CAPPA:IS1  8;IS2  8;IS3  8; K PTS MONK NET  50; SYMMOPS:K SPACE  24;G SPACE  24

 TTTTTTTTTTTTTTTTTTTTTTTTTTTTTT SDIK        TELAPSE       10.79 TCPU        8.37

 AAAAAAAAAAAAAAAAAAAAAAAAAAAAAAAAAAAAAAAAAAAAAAAAAAAAAAAAAAAAAAAAAAAAAAAAAAAAAAA
         ATOMIC WAVEFUNCTION(S)


 NUCLEAR CHARGE  3.0  SYMMETRY SPECIES            S
 N. ELECTRONS    3.0  NUMBER OF PRIMITIVE GTOS   10
                      NUMBER OF CONTRACTED GTOS   4
                      NUMBER OF CLOSED SHELLS     1
                      OPEN SHELL OCCUPATION       1

  ZNUC  SCFIT    TOTAL HF ENERGY   KINETIC ENERGY   VIRIAL THEOREM             ACCURACY
   3.0     6    -7.379265796E+00  7.680406116E+00 -1.960791094E+00  2.4E-06

 NUCLEAR CHARGE  8.0  SYMMETRY SPECIES            S    P
 N. ELECTRONS    8.0  NUMBER OF PRIMITIVE GTOS   10    6
                      NUMBER OF CONTRACTED GTOS   4    3
                      NUMBER OF CLOSED SHELLS     2    0
                      OPEN SHELL OCCUPATION       0    4

  ZNUC  SCFIT    TOTAL HF ENERGY   KINETIC ENERGY   VIRIAL THEOREM             ACCURACY
   8.0    13    -7.480300556E+01  7.484348362E+01 -1.999459164E+00  4.9E-06

 AAAAAAAAAAAAAAAAAAAAAAAAAAAAAAAAAAAAAAAAAAAAAAAAAAAAAAAAAAAAAAAAAAAAAAAAAAAAAAA

 TTTTTTTTTTTTTTTTTTTTTTTTTTTTTT MOQGAD      TELAPSE       10.79 TCPU        8.37
 TTTTTTTTTTTTTTTTTTTTTTTTTTTTTT SHELLXN     TELAPSE       13.21 TCPU       10.77
 TTTTTTTTTTTTTTTTTTTTTTTTTTTTTT MONMO3      TELAPSE       13.21 TCPU       10.78
 NUMERICALLY INTEGRATED DENSITY     43.9999728637
 TTTTTTTTTTTTTTTTTTTTTTTTTTTTTT NUMDFT      TELAPSE       13.34 TCPU       10.91
 CYC   0 ETOT(AU) -3.316885667854E+02 DETOT -3.32E+02 tst  0.00E+00 PX  1.00E+00
 TTTTTTTTTTTTTTTTTTTTTTTTTTTTTT DIIS        TELAPSE       13.35 TCPU       10.91
 TTTTTTTTTTTTTTTTTTTTTTTTTTTTTT FDIK        TELAPSE       13.35 TCPU       10.92
 INSULATING STATE
 TOP OF VALENCE BANDS -    BAND     22; K    1; EIG -2.6135678E-01 AU
 BOTTOM OF VIRTUAL BANDS - BAND     23; K    1; EIG -1.0448163E-01 AU
 DIRECT ENERGY BAND GAP:   4.2688 eV
 TTTTTTTTTTTTTTTTTTTTTTTTTTTTTT PDIG        TELAPSE       13.36 TCPU       10.93
 TTTTTTTTTTTTTTTTTTTTTTTTTTTTTT MOQGAD      TELAPSE       13.37 TCPU       10.93
 TTTTTTTTTTTTTTTTTTTTTTTTTTTTTT SHELLXN     TELAPSE       15.81 TCPU       13.36
 TTTTTTTTTTTTTTTTTTTTTTTTTTTTTT MONMO3      TELAPSE       15.81 TCPU       13.36
 NUMERICALLY INTEGRATED DENSITY     43.9999796909
 TTTTTTTTTTTTTTTTTTTTTTTTTTTTTT NUMDFT      TELAPSE       15.95 TCPU       13.50
 CYC   1 ETOT(AU) -3.307484344777E+02 DETOT  9.40E-01 tst  0.00E+00 PX  1.00E+00
 TTTTTTTTTTTTTTTTTTTTTTTTTTTTTT DIIS        TELAPSE       15.95 TCPU       13.50
 DIIS TEST: 0.44385E+00 AT SCF   CYCLE   1 - MIX   30 %
 TTTTTTTTTTTTTTTTTTTTTTTTTTTTTT FDIK        TELAPSE       15.96 TCPU       13.51
 INSULATING STATE
 TOP OF VALENCE BANDS -    BAND     22; K    1; EIG -1.2959904E-01 AU
 BOTTOM OF VIRTUAL BANDS - BAND     23; K    1; EIG  1.6559645E-02 AU
 DIRECT ENERGY BAND GAP:   3.9772 eV
 TTTTTTTTTTTTTTTTTTTTTTTTTTTTTT PDIG        TELAPSE       15.98 TCPU       13.52
 TTTTTTTTTTTTTTTTTTTTTTTTTTTTTT MOQGAD      TELAPSE       15.98 TCPU       13.52
 TTTTTTTTTTTTTTTTTTTTTTTTTTTTTT SHELLXN     TELAPSE       18.42 TCPU       15.95
 TTTTTTTTTTTTTTTTTTTTTTTTTTTTTT MONMO3      TELAPSE       18.43 TCPU       15.96
 NUMERICALLY INTEGRATED DENSITY     43.9999758021
 TTTTTTTTTTTTTTTTTTTTTTTTTTTTTT NUMDFT      TELAPSE       18.56 TCPU       16.09
 CYC   2 ETOT(AU) -3.307975555044E+02 DETOT -4.91E-02 tst  4.30E-03 PX  9.25E-02
 TTTTTTTTTTTTTTTTTTTTTTTTTTTTTT DIIS        TELAPSE       18.57 TCPU       16.10
 DIIS TEST: 0.19528E+00 AT SCF   CYCLE   2 - DIIS ACTIVE - HISTORY:     2 CYCLES
 TTTTTTTTTTTTTTTTTTTTTTTTTTTTTT FDIK        TELAPSE       18.63 TCPU       16.14
 INSULATING STATE
 TOP OF VALENCE BANDS -    BAND     22; K    1; EIG -1.6321140E-01 AU
 BOTTOM OF VIRTUAL BANDS - BAND     23; K    1; EIG  3.0153706E-02 AU
 DIRECT ENERGY BAND GAP:   5.2617 eV
 TTTTTTTTTTTTTTTTTTTTTTTTTTTTTT PDIG        TELAPSE       18.65 TCPU       16.15
 TTTTTTTTTTTTTTTTTTTTTTTTTTTTTT MOQGAD      TELAPSE       18.65 TCPU       16.15
 TTTTTTTTTTTTTTTTTTTTTTTTTTTTTT SHELLXN     TELAPSE       21.09 TCPU       18.58
 TTTTTTTTTTTTTTTTTTTTTTTTTTTTTT MONMO3      TELAPSE       21.09 TCPU       18.58
 NUMERICALLY INTEGRATED DENSITY     43.9999770692
 TTTTTTTTTTTTTTTTTTTTTTTTTTTTTT NUMDFT      TELAPSE       21.23 TCPU       18.72
 CYC   3 ETOT(AU) -3.308201082609E+02 DETOT -2.26E-02 tst  5.63E-04 PX  2.38E-02
 TTTTTTTTTTTTTTTTTTTTTTTTTTTTTT DIIS        TELAPSE       21.23 TCPU       18.72
 DIIS TEST: 0.34609E-02 AT SCF   CYCLE   3 - DIIS ACTIVE - HISTORY:     3 CYCLES
 TTTTTTTTTTTTTTTTTTTTTTTTTTTTTT FDIK        TELAPSE       21.25 TCPU       18.73
 INSULATING STATE
 TOP OF VALENCE BANDS -    BAND     22; K    1; EIG -1.6258040E-01 AU
 BOTTOM OF VIRTUAL BANDS - BAND     23; K    1; EIG  2.9814775E-02 AU
 DIRECT ENERGY BAND GAP:   5.2353 eV
 TTTTTTTTTTTTTTTTTTTTTTTTTTTTTT PDIG        TELAPSE       21.26 TCPU       18.74
 TTTTTTTTTTTTTTTTTTTTTTTTTTTTTT MOQGAD      TELAPSE       21.26 TCPU       18.74
 TTTTTTTTTTTTTTTTTTTTTTTTTTTTTT SHELLXN     TELAPSE       23.71 TCPU       21.17
 TTTTTTTTTTTTTTTTTTTTTTTTTTTTTT MONMO3      TELAPSE       23.71 TCPU       21.17
 NUMERICALLY INTEGRATED DENSITY     43.9999773463
 TTTTTTTTTTTTTTTTTTTTTTTTTTTTTT NUMDFT      TELAPSE       23.85 TCPU       21.31
 CYC   4 ETOT(AU) -3.308204682362E+02 DETOT -3.60E-04 tst  2.33E-05 PX  5.47E-03
 TTTTTTTTTTTTTTTTTTTTTTTTTTTTTT DIIS        TELAPSE       23.85 TCPU       21.31
 DIIS TEST: 0.30338E-03 AT SCF   CYCLE   4 - DIIS ACTIVE - HISTORY:     4 CYCLES
 TTTTTTTTTTTTTTTTTTTTTTTTTTTTTT FDIK        TELAPSE       23.86 TCPU       21.31
 INSULATING STATE
 TOP OF VALENCE BANDS -    BAND     22; K    1; EIG -1.6370085E-01 AU
 BOTTOM OF VIRTUAL BANDS - BAND     23; K    1; EIG  3.0339386E-02 AU
 DIRECT ENERGY BAND GAP:   5.2801 eV
 TTTTTTTTTTTTTTTTTTTTTTTTTTTTTT PDIG        TELAPSE       23.87 TCPU       21.32
 TTTTTTTTTTTTTTTTTTTTTTTTTTTTTT MOQGAD      TELAPSE       23.87 TCPU       21.32
 TTTTTTTTTTTTTTTTTTTTTTTTTTTTTT SHELLXN     TELAPSE       26.31 TCPU       23.76
 TTTTTTTTTTTTTTTTTTTTTTTTTTTTTT MONMO3      TELAPSE       26.32 TCPU       23.76
 NUMERICALLY INTEGRATED DENSITY     43.9999773376
 TTTTTTTTTTTTTTTTTTTTTTTTTTTTTT NUMDFT      TELAPSE       26.46 TCPU       23.90
 CYC   5 ETOT(AU) -3.308205043707E+02 DETOT -3.61E-05 tst  1.16E-06 PX  6.84E-04
 TTTTTTTTTTTTTTTTTTTTTTTTTTTTTT DIIS        TELAPSE       26.46 TCPU       23.90
 DIIS TEST: 0.15481E-06 AT SCF   CYCLE   5 - DIIS ACTIVE - HISTORY:     5 CYCLES
 TTTTTTTTTTTTTTTTTTTTTTTTTTTTTT FDIK        TELAPSE       26.46 TCPU       23.90
 INSULATING STATE
 TOP OF VALENCE BANDS -    BAND     22; K    1; EIG -1.6361482E-01 AU
 BOTTOM OF VIRTUAL BANDS - BAND     23; K    1; EIG  3.0435500E-02 AU
 DIRECT ENERGY BAND GAP:   5.2804 eV
 TTTTTTTTTTTTTTTTTTTTTTTTTTTTTT PDIG        TELAPSE       26.47 TCPU       23.91
 TTTTTTTTTTTTTTTTTTTTTTTTTTTTTT MOQGAD      TELAPSE       26.48 TCPU       23.91
 TTTTTTTTTTTTTTTTTTTTTTTTTTTTTT SHELLXN     TELAPSE       28.92 TCPU       26.35
 TTTTTTTTTTTTTTTTTTTTTTTTTTTTTT MONMO3      TELAPSE       28.93 TCPU       26.35
 NUMERICALLY INTEGRATED DENSITY     43.9999773396
 TTTTTTTTTTTTTTTTTTTTTTTTTTTTTT NUMDFT      TELAPSE       29.06 TCPU       26.49
 CYC   6 ETOT(AU) -3.308205044572E+02 DETOT -8.65E-08 tst  2.98E-09 PX  6.39E-05
 TTTTTTTTTTTTTTTTTTTTTTTTTTTTTT DIIS        TELAPSE       29.06 TCPU       26.49
 DIIS TEST: 0.36594E-08 AT SCF   CYCLE   6 - DIIS ACTIVE - HISTORY:     6 CYCLES
 TTTTTTTTTTTTTTTTTTTTTTTTTTTTTT FDIK        TELAPSE       29.07 TCPU       26.49
 INSULATING STATE
 TOP OF VALENCE BANDS -    BAND     22; K    1; EIG -1.6359984E-01 AU
 BOTTOM OF VIRTUAL BANDS - BAND     23; K    1; EIG  3.0450995E-02 AU
 DIRECT ENERGY BAND GAP:   5.2804 eV
 TTTTTTTTTTTTTTTTTTTTTTTTTTTTTT PDIG        TELAPSE       29.08 TCPU       26.50
 TTTTTTTTTTTTTTTTTTTTTTTTTTTTTT MOQGAD      TELAPSE       29.08 TCPU       26.50
 TTTTTTTTTTTTTTTTTTTTTTTTTTTTTT SHELLXN     TELAPSE       31.53 TCPU       28.93
 TTTTTTTTTTTTTTTTTTTTTTTTTTTTTT MONMO3      TELAPSE       31.53 TCPU       28.94
 NUMERICALLY INTEGRATED DENSITY     43.9999773394
 TTTTTTTTTTTTTTTTTTTTTTTTTTTTTT NUMDFT      TELAPSE       31.67 TCPU       29.07
 CYC   7 ETOT(AU) -3.308205044604E+02 DETOT -3.20E-09 tst  3.50E-11 PX  1.24E-05
 TTTTTTTTTTTTTTTTTTTTTTTTTTTTTT DIIS        TELAPSE       31.67 TCPU       29.08
 DIIS TEST: 0.46071E-10 AT SCF   CYCLE   7 - DIIS ACTIVE - HISTORY:     7 CYCLES
 TTTTTTTTTTTTTTTTTTTTTTTTTTTTTT FDIK        TELAPSE       31.68 TCPU       29.08
 INSULATING STATE
 TOP OF VALENCE BANDS -    BAND     22; K    1; EIG -1.6359834E-01 AU
 BOTTOM OF VIRTUAL BANDS - BAND     23; K    1; EIG  3.0452931E-02 AU
 DIRECT ENERGY BAND GAP:   5.2804 eV
 TTTTTTTTTTTTTTTTTTTTTTTTTTTTTT PDIG        TELAPSE       31.69 TCPU       29.09
 TTTTTTTTTTTTTTTTTTTTTTTTTTTTTT MOQGAD      TELAPSE       31.69 TCPU       29.09
 TTTTTTTTTTTTTTTTTTTTTTTTTTTTTT SHELLXN     TELAPSE       34.14 TCPU       31.52
 TTTTTTTTTTTTTTTTTTTTTTTTTTTTTT MONMO3      TELAPSE       34.14 TCPU       31.53
 NUMERICALLY INTEGRATED DENSITY     43.9999773393
 TTTTTTTTTTTTTTTTTTTTTTTTTTTTTT NUMDFT      TELAPSE       34.28 TCPU       31.66
 CYC   8 ETOT(AU) -3.308205044613E+02 DETOT -9.09E-10 tst  8.42E-13 PX  1.86E-06
 TTTTTTTTTTTTTTTTTTTTTTTTTTTTTT DIIS        TELAPSE       34.28 TCPU       31.67
 DIIS TEST: 0.39379E-12 AT SCF   CYCLE   8 - DIIS ACTIVE - HISTORY:     8 CYCLES
 TTTTTTTTTTTTTTTTTTTTTTTTTTTTTT FDIK        TELAPSE       34.29 TCPU       31.67
 INSULATING STATE
 TOP OF VALENCE BANDS -    BAND     22; K    1; EIG -1.6359827E-01 AU
 BOTTOM OF VIRTUAL BANDS - BAND     23; K    1; EIG  3.0453004E-02 AU
 DIRECT ENERGY BAND GAP:   5.2804 eV
 TTTTTTTTTTTTTTTTTTTTTTTTTTTTTT PDIG        TELAPSE       34.30 TCPU       31.68
 TTTTTTTTTTTTTTTTTTTTTTTTTTTTTT MOQGAD      TELAPSE       34.30 TCPU       31.69
 TTTTTTTTTTTTTTTTTTTTTTTTTTTTTT SHELLXN     TELAPSE       36.75 TCPU       34.12
 TTTTTTTTTTTTTTTTTTTTTTTTTTTTTT MONMO3      TELAPSE       36.75 TCPU       34.12
 NUMERICALLY INTEGRATED DENSITY     43.9999773393
 TTTTTTTTTTTTTTTTTTTTTTTTTTTTTT NUMDFT      TELAPSE       36.89 TCPU       34.26
 CYC   9 ETOT(AU) -3.308205044614E+02 DETOT -1.35E-10 tst  2.96E-15 PX  9.00E-08
 TTTTTTTTTTTTTTTTTTTTTTTTTTTTTT DIIS        TELAPSE       36.89 TCPU       34.26
 DIIS TEST: 0.10870E-14 AT SCF   CYCLE   9 - DIIS ACTIVE - HISTORY:     9 CYCLES
 TTTTTTTTTTTTTTTTTTTTTTTTTTTTTT FDIK        TELAPSE       36.90 TCPU       34.26
 INSULATING STATE
 TOP OF VALENCE BANDS -    BAND     22; K    1; EIG -1.6359827E-01 AU
 BOTTOM OF VIRTUAL BANDS - BAND     23; K    1; EIG  3.0453007E-02 AU
 DIRECT ENERGY BAND GAP:   5.2804 eV
 TTTTTTTTTTTTTTTTTTTTTTTTTTTTTT PDIG        TELAPSE       36.91 TCPU       34.27
 TTTTTTTTTTTTTTTTTTTTTTTTTTTTTT MOQGAD      TELAPSE       36.91 TCPU       34.27
 TTTTTTTTTTTTTTTTTTTTTTTTTTTTTT SHELLXN     TELAPSE       39.35 TCPU       36.71
 TTTTTTTTTTTTTTTTTTTTTTTTTTTTTT MONMO3      TELAPSE       39.36 TCPU       36.71
 NUMERICALLY INTEGRATED DENSITY     43.9999773393
 TTTTTTTTTTTTTTTTTTTTTTTTTTTTTT NUMDFT      TELAPSE       39.49 TCPU       36.85
 CYC  10 ETOT(AU) -3.308205044614E+02 DETOT -9.49E-12 tst  1.73E-17 PX  4.22E-09
 TTTTTTTTTTTTTTTTTTTTTTTTTTTTTT DIIS        TELAPSE       39.50 TCPU       36.85
 DIIS TEST: 0.96998E-17 AT SCF   CYCLE  10 - DIIS ACTIVE - HISTORY:     9 CYCLES
 TTTTTTTTTTTTTTTTTTTTTTTTTTTTTT FDIK        TELAPSE       39.50 TCPU       36.86
 INSULATING STATE
 TOP OF VALENCE BANDS -    BAND     22; K    1; EIG -1.6359827E-01 AU
 BOTTOM OF VIRTUAL BANDS - BAND     23; K    1; EIG  3.0453007E-02 AU
 DIRECT ENERGY BAND GAP:   5.2804 eV
 TTTTTTTTTTTTTTTTTTTTTTTTTTTTTT PDIG        TELAPSE       39.52 TCPU       36.87
 TTTTTTTTTTTTTTTTTTTTTTTTTTTTTT MOQGAD      TELAPSE       39.52 TCPU       36.87
 TTTTTTTTTTTTTTTTTTTTTTTTTTTTTT SHELLXN     TELAPSE       41.97 TCPU       39.31
 ::: PSEUDO TOTAL   ENERGY                        -2.9889588684561E+02
 ::: VIRIAL COEFFICIENT                            1.0503704886419E+00
 TTTTTTTTTTTTTTTTTTTTTTTTTTTTTT MONMO3      TELAPSE       41.97 TCPU       39.31
 NUMERICALLY INTEGRATED DENSITY     43.9999773393
 EXCHANGE ENERGY: -0.304861194352E+02  CORRELATION ENERGY: -0.143849818062E+01
 TTTTTTTTTTTTTTTTTTTTTTTTTTTTTT NUMDFT      TELAPSE       42.11 TCPU       39.44
 CYC  11 ETOT(AU) -3.308205044614E+02 DETOT -1.36E-12 tst  3.03E-20 PX  4.22E-09

 == SCF ENDED - CONVERGENCE ON ENERGY      E(AU) -3.3082050446142E+02 CYCLES  11


 ENERGY EXPRESSION=HARTREE+FOCK EXCH*0.25000+(PBE        EXCH)*0.75000+PBE        CORR


 TOTAL ENERGY(DFT)(AU)( 11) -3.3082050446142E+02 DE-1.4E-12 tester 3.0E-20
 TTTTTTTTTTTTTTTTTTTTTTTTTTTTTT EDFT        TELAPSE       42.11 TCPU       39.45

 *******************************************************************************
 *                             FORCE CALCULATION                               *
 *******************************************************************************

 TTTTTTTTTTTTTTTTTTTTTTTTTTTTTT NUMDFG      TELAPSE       42.80 TCPU       40.13
 INFORMATION **** EXCPOG **** EXCH. BIPO BUFFER LENGTH (WORDS) =     3329568
 INFORMATION **** GENPOG **** BIPO BUFFER LENGTH (WORDS) =     1067600
 TTTTTTTTTTTTTTTTTTTTTTTTTTTTTT SHELXG      TELAPSE       57.48 TCPU       54.74

 CARTESIAN FORCES IN HARTREE/BOHR (ANALYTICAL)
   ATOM                     X                   Y                   Z
   1   3             1.151393091820E-15  5.875897507983E-16  7.178641330798E-03
   2   3            -3.490172637510E-16  7.318174401768E-16  7.178641330803E-03
   3   3            -1.120021239270E-15 -5.350352700121E-16 -7.178641330801E-03
   4   3             2.858722732041E-16 -1.373783697249E-16 -7.178641330801E-03
   5   8            -2.687170208189E-16 -1.251021392638E-15  2.078919679589E-01
   6   8            -1.366429678897E-15 -9.424215524346E-16  2.078919679589E-01
   7   8            -6.206387592089E-16  9.010529514220E-16 -2.078919679589E-01
   8   8             2.291148997938E-15  6.500223716814E-16 -2.078919679589E-01

 RESULTANT FORCE     3.590401016155E-18  4.625929269271E-18 -1.360023205166E-15

 ATOMIC PART

 SYMMETRY ALLOWED FORCES (ANALYTICAL) (DIRECTION, FORCE)

    1  1.4357283E-02    2  4.1578394E-01

 CELL PART

 GRADIENT WITH RESPECT TO THE CELL PARAMETER IN HARTREE/BOHR
ORDER: -D/DA1X, -D/DA1Y, -D/DA1Z
       -D/DA2X, -D/DA2Y, -D/DA2Z
       -D/DA3X, -D/DA3Y, -D/DA3Z
  0.280699999358E-01 -0.643052340884E-15 -0.218951769665E-14
  0.140349999679E-01  0.243093330287E-01 -0.195618685531E-14
 -0.557836510817E-15 -0.631913976801E-15  0.609520952818E-01

STRESS TENSOR, IN HARTREE/BOHR^3:
ORDER: 11 12 13
       21 22 23
       31 32 33
 -0.323396414072E-03 -0.110275043146E-15  0.181496550465E-16
  0.740865057278E-17 -0.323396414072E-03  0.205598243851E-16
  0.252255850823E-16  0.114599083452E-16 -0.198312495197E-02

STRESS TENSOR DOES NOT CORRESPOND TO
HYDROSTATIC PRESSURE, NO PRESSURE COMPUTED!

 SYMMETRY ALLOWED FORCES (ANALYTICAL) (DIRECTION, FORCE)

    1  7.8024630E-02    2 -5.9346032E-02
 TTTTTTTTTTTTTTTTTTTTTTTTTTTTTT TOTGRA      TELAPSE       57.56 TCPU       54.81
 INFORMATION **** optc001 **** GEOMETRY OUTPUT FILE
 CLASSICAL MODEL (SCHLEGEL) USED AS INITIAL HESSIAN MATRIX
 REFERENCE GEOMETRY DEFINED

 MAX GRADIENT      0.415784  THRESHOLD              0.000045 CONVERGED NO
 RMS GRADIENT      0.213713  THRESHOLD              0.000030 CONVERGED NO

 GRADIENT NORM     0.427425  GRADIENT THRESHOLD     0.500000

 EIGENVALUES OF THE ESTIMATED HESSIAN
  0.7191E-01  0.1163      0.2968       1.490    
 NEWTON STEP ( 0.5209079240E+00) EXCEEDS TRUST RADIUS ( 0.5000000000E+00)
 LEVEL SHIFT     0.5512595585E-01

 INITIAL TRUST RADIUS    0.5000000000E+00

 PREDICTED ENERGY CHANGE    -0.591E-01

 INITIAL DISPLACEMENTS
 -0.045678  0.125899  0.481723  0.002481
 TTTTTTTTTTTTTTTTTTTTTTTTTTTTTT OPTI        TELAPSE       57.78 TCPU       55.03

 OPTOPTOPTOPTOPTOPTOPTOPTOPTOPTOPTOPTOPTOPTOPTOPTOPTOPTOPTOPTOPTOPTOPTOPTOPTOPT

 - INFORMATION ON SCF MOVED TO SCFOUT.LOG
 GEOMETRY OPTIMIZATION INFORMATION STORED IN OPTINFO.DAT

 OPTOPTOPTOPTOPTOPTOPTOPTOPTOPTOPTOPTOPTOPTOPTOPTOPTOPTOPTOPTOPTOPTOPTOPTOPTOPT
 *******************************************************************************
 COORDINATE AND CELL OPTIMIZATION - POINT    2
 *******************************************************************************
 LATTICE PARAMETERS (ANGSTROMS AND DEGREES) - BOHR = 0.5291772083 ANGSTROM
 PRIMITIVE CELL - CENTRING CODE 1/0 VOLUME=    72.916693 - DENSITY  2.096 g/cm^3
         A              B              C           ALPHA      BETA       GAMMA 
     3.25342431     3.25342431     7.95453717    90.000000  90.000000 120.000000
 *******************************************************************************
 ATOMS IN THE ASYMMETRIC UNIT    2 - ATOMS IN THE UNIT CELL:    8
     ATOM                 X/A                 Y/B                 Z/C    
 *******************************************************************************
      1 T   3 LI    3.333333333333E-01 -3.333333333333E-01  9.043242781876E-02
      2 F   3 LI   -3.333333333333E-01  3.333333333333E-01 -4.095675721812E-01
      3 F   3 LI   -3.333333333333E-01  3.333333333333E-01 -9.043242781876E-02
      4 F   3 LI    3.333333333333E-01 -3.333333333333E-01  4.095675721812E-01
      5 T   8 O     3.333333333333E-01 -3.333333333333E-01 -1.626794431146E-01
      6 F   8 O    -3.333333333333E-01  3.333333333333E-01  3.373205568854E-01
      7 F   8 O    -3.333333333333E-01  3.333333333333E-01  1.626794431146E-01
      8 F   8 O     3.333333333333E-01 -3.333333333333E-01 -3.373205568854E-01

 T = ATOM BELONGING TO THE ASYMMETRIC UNIT

 TOTAL ENERGY(DFT)(AU)( 11) -3.3087733964227E+02     DE (AU)   -5.684E-02

 UPDATED TRUST RADIUS     0.500E+00

 SYMMETRY ALLOWED FORCES  (COORDINATE, FORCE)

    1  2.9238389E-02    2  1.6301883E-01    3  2.1305560E-02    4 -1.3041385E-02

 GRADIENT NORM     0.167493  GRADIENT THRESHOLD     0.500000

 EIGENVALUES OF THE ESTIMATED HESSIAN
  0.5975E-01  0.1109      0.3209       1.727    

 PREDICTED ENERGY CHANGE    -0.106E-01

 MAX GRADIENT      0.163019  THRESHOLD              0.000045 CONVERGED NO
 RMS GRADIENT      0.083747  THRESHOLD              0.000030 CONVERGED NO
 MAX DISPLAC.      0.211479  THRESHOLD              0.000180 CONVERGED NO
 RMS DISPLAC.      0.141349  THRESHOLD              0.000120 CONVERGED NO
 TTTTTTTTTTTTTTTTTTTTTTTTTTTTTT OPTI        TELAPSE      107.11 TCPU      104.03
 *******************************************************************************
 COORDINATE AND CELL OPTIMIZATION - POINT    3
 *******************************************************************************
 LATTICE PARAMETERS (ANGSTROMS AND DEGREES) - BOHR = 0.5291772083 ANGSTROM
 PRIMITIVE CELL - CENTRING CODE 1/0 VOLUME=    76.017884 - DENSITY  2.011 g/cm^3
         A              B              C           ALPHA      BETA       GAMMA 
     3.31702128     3.31702128     7.97790078    90.000000  90.000000 120.000000
 *******************************************************************************
 ATOMS IN THE ASYMMETRIC UNIT    2 - ATOMS IN THE UNIT CELL:    8
     ATOM                 X/A                 Y/B                 Z/C    
 *******************************************************************************
      1 T   3 LI    3.333333333333E-01 -3.333333333333E-01  9.312735516956E-02
      2 F   3 LI   -3.333333333333E-01  3.333333333333E-01 -4.068726448304E-01
      3 F   3 LI   -3.333333333333E-01  3.333333333333E-01 -9.312735516956E-02
      4 F   3 LI    3.333333333333E-01 -3.333333333333E-01  4.068726448304E-01
      5 T   8 O     3.333333333333E-01 -3.333333333333E-01 -1.592832051950E-01
      6 F   8 O    -3.333333333333E-01  3.333333333333E-01  3.407167948050E-01
      7 F   8 O    -3.333333333333E-01  3.333333333333E-01  1.592832051950E-01
      8 F   8 O     3.333333333333E-01 -3.333333333333E-01 -3.407167948050E-01

 T = ATOM BELONGING TO THE ASYMMETRIC UNIT

 TOTAL ENERGY(DFT)(AU)(  9) -3.3089222324741E+02     DE (AU)   -1.488E-02

 UPDATED TRUST RADIUS     0.500E+00

 SYMMETRY ALLOWED FORCES  (COORDINATE, FORCE)

    1  2.5087052E-02    2  7.2209032E-02    3  1.9331161E-03    4 -2.6948775E-03

 GRADIENT NORM     0.076515  GRADIENT THRESHOLD     0.500000

 EIGENVALUES OF THE ESTIMATED HESSIAN
  0.5641E-01  0.1149      0.2727       1.177    

 PREDICTED ENERGY CHANGE    -0.500E-02

 MAX GRADIENT      0.072209  THRESHOLD              0.000045 CONVERGED NO
 RMS GRADIENT      0.038257  THRESHOLD              0.000030 CONVERGED NO
 MAX DISPLAC.      0.137185  THRESHOLD              0.000180 CONVERGED NO
 RMS DISPLAC.      0.110450  THRESHOLD              0.000120 CONVERGED NO
 TTTTTTTTTTTTTTTTTTTTTTTTTTTTTT OPTI        TELAPSE      151.04 TCPU      147.67
 *******************************************************************************
 COORDINATE AND CELL OPTIMIZATION - POINT    4
 *******************************************************************************
 LATTICE PARAMETERS (ANGSTROMS AND DEGREES) - BOHR = 0.5291772083 ANGSTROM
 PRIMITIVE CELL - CENTRING CODE 1/0 VOLUME=    76.960059 - DENSITY  1.986 g/cm^3
         A              B              C           ALPHA      BETA       GAMMA 
     3.34893558     3.34893558     7.92357504    90.000000  90.000000 120.000000
 *******************************************************************************
 ATOMS IN THE ASYMMETRIC UNIT    2 - ATOMS IN THE UNIT CELL:    8
     ATOM                 X/A                 Y/B                 Z/C    
 *******************************************************************************
      1 T   3 LI    3.333333333333E-01 -3.333333333333E-01  9.755185510945E-02
      2 F   3 LI   -3.333333333333E-01  3.333333333333E-01 -4.024481448906E-01
      3 F   3 LI   -3.333333333333E-01  3.333333333333E-01 -9.755185510945E-02
      4 F   3 LI    3.333333333333E-01 -3.333333333333E-01  4.024481448906E-01
      5 T   8 O     3.333333333333E-01 -3.333333333333E-01 -1.559487074062E-01
      6 F   8 O    -3.333333333333E-01  3.333333333333E-01  3.440512925938E-01
      7 F   8 O    -3.333333333333E-01  3.333333333333E-01  1.559487074062E-01
      8 F   8 O     3.333333333333E-01 -3.333333333333E-01 -3.440512925938E-01

 T = ATOM BELONGING TO THE ASYMMETRIC UNIT

 TOTAL ENERGY(DFT)(AU)(  9) -3.3089871538812E+02     DE (AU)   -6.492E-03

 UPDATED TRUST RADIUS     0.500E+00

 SYMMETRY ALLOWED FORCES  (COORDINATE, FORCE)

    1  1.4923570E-02    2  1.7530529E-02    3 -5.7256250E-03    4 -2.8447361E-04

 GRADIENT NORM     0.023725  GRADIENT THRESHOLD     0.500000

 EIGENVALUES OF THE ESTIMATED HESSIAN
  0.6098E-01  0.1080      0.1865       1.147    

 PREDICTED ENERGY CHANGE    -0.134E-02

 MAX GRADIENT      0.017531  THRESHOLD              0.000045 CONVERGED NO
 RMS GRADIENT      0.011863  THRESHOLD              0.000030 CONVERGED NO
 MAX DISPLAC.      0.097125  THRESHOLD              0.000180 CONVERGED NO
 RMS DISPLAC.      0.065419  THRESHOLD              0.000120 CONVERGED NO
 TTTTTTTTTTTTTTTTTTTTTTTTTTTTTT OPTI        TELAPSE      194.97 TCPU      191.32
 *******************************************************************************
 COORDINATE AND CELL OPTIMIZATION - POINT    5
 *******************************************************************************
 LATTICE PARAMETERS (ANGSTROMS AND DEGREES) - BOHR = 0.5291772083 ANGSTROM
 PRIMITIVE CELL - CENTRING CODE 1/0 VOLUME=    76.052164 - DENSITY  2.010 g/cm^3
         A              B              C           ALPHA      BETA       GAMMA 
     3.34095050     3.34095050     7.86757442    90.000000  90.000000 120.000000
 *******************************************************************************
 ATOMS IN THE ASYMMETRIC UNIT    2 - ATOMS IN THE UNIT CELL:    8
     ATOM                 X/A                 Y/B                 Z/C    
 *******************************************************************************
      1 T   3 LI    3.333333333333E-01 -3.333333333333E-01  1.008849563974E-01
      2 F   3 LI   -3.333333333333E-01  3.333333333333E-01 -3.991150436026E-01
      3 F   3 LI   -3.333333333333E-01  3.333333333333E-01 -1.008849563974E-01
      4 F   3 LI    3.333333333333E-01 -3.333333333333E-01  3.991150436026E-01
      5 T   8 O     3.333333333333E-01 -3.333333333333E-01 -1.541954645504E-01
      6 F   8 O    -3.333333333333E-01  3.333333333333E-01  3.458045354496E-01
      7 F   8 O    -3.333333333333E-01  3.333333333333E-01  1.541954645504E-01
      8 F   8 O     3.333333333333E-01 -3.333333333333E-01 -3.458045354496E-01

 T = ATOM BELONGING TO THE ASYMMETRIC UNIT

 TOTAL ENERGY(DFT)(AU)(  9) -3.3090042377307E+02     DE (AU)   -1.708E-03

 UPDATED TRUST RADIUS     0.500E+00

 SYMMETRY ALLOWED FORCES  (COORDINATE, FORCE)

    1  7.2899913E-03    2 -2.7399768E-03    3 -4.5268929E-03    4 -2.4761482E-04

 GRADIENT NORM     0.009011  GRADIENT THRESHOLD     0.500000

 EIGENVALUES OF THE ESTIMATED HESSIAN
  0.6057E-01  0.8650E-01  0.1484       1.251    

 PREDICTED ENERGY CHANGE    -0.349E-03

 MAX GRADIENT      0.007290  THRESHOLD              0.000045 CONVERGED NO
 RMS GRADIENT      0.004506  THRESHOLD              0.000030 CONVERGED NO
 MAX DISPLAC.      0.070375  THRESHOLD              0.000180 CONVERGED NO
 RMS DISPLAC.      0.046696  THRESHOLD              0.000120 CONVERGED NO
 TTTTTTTTTTTTTTTTTTTTTTTTTTTTTT OPTI        TELAPSE      238.94 TCPU      235.01
 *******************************************************************************
 COORDINATE AND CELL OPTIMIZATION - POINT    6
 *******************************************************************************
 LATTICE PARAMETERS (ANGSTROMS AND DEGREES) - BOHR = 0.5291772083 ANGSTROM
 PRIMITIVE CELL - CENTRING CODE 1/0 VOLUME=    74.993238 - DENSITY  2.038 g/cm^3
         A              B              C           ALPHA      BETA       GAMMA 
     3.32313904     3.32313904     7.84141517    90.000000  90.000000 120.000000
 *******************************************************************************
 ATOMS IN THE ASYMMETRIC UNIT    2 - ATOMS IN THE UNIT CELL:    8
     ATOM                 X/A                 Y/B                 Z/C    
 *******************************************************************************
      1 T   3 LI    3.333333333333E-01 -3.333333333333E-01  1.028440919087E-01
      2 F   3 LI   -3.333333333333E-01  3.333333333333E-01 -3.971559080913E-01
      3 F   3 LI   -3.333333333333E-01  3.333333333333E-01 -1.028440919087E-01
      4 F   3 LI    3.333333333333E-01 -3.333333333333E-01  3.971559080913E-01
      5 T   8 O     3.333333333333E-01 -3.333333333333E-01 -1.536753861029E-01
      6 F   8 O    -3.333333333333E-01  3.333333333333E-01  3.463246138971E-01
      7 F   8 O    -3.333333333333E-01  3.333333333333E-01  1.536753861029E-01
      8 F   8 O     3.333333333333E-01 -3.333333333333E-01 -3.463246138971E-01

 T = ATOM BELONGING TO THE ASYMMETRIC UNIT

 TOTAL ENERGY(DFT)(AU)( 10) -3.3090083503683E+02     DE (AU)   -4.113E-04

 UPDATED TRUST RADIUS     0.500E+00

 SYMMETRY ALLOWED FORCES  (COORDINATE, FORCE)

    1  2.9968585E-03    2 -6.9813228E-03    3 -1.3509150E-03    4 -3.0179927E-04

 GRADIENT NORM     0.007722  GRADIENT THRESHOLD     0.500000

 EIGENVALUES OF THE ESTIMATED HESSIAN
  0.4576E-01  0.9630E-01  0.1358       1.240    

 PREDICTED ENERGY CHANGE    -0.733E-04

 MAX GRADIENT      0.006981  THRESHOLD              0.000045 CONVERGED NO
 RMS GRADIENT      0.003861  THRESHOLD              0.000030 CONVERGED NO
 MAX DISPLAC.      0.027401  THRESHOLD              0.000180 CONVERGED NO
 RMS DISPLAC.      0.022409  THRESHOLD              0.000120 CONVERGED NO
 TTTTTTTTTTTTTTTTTTTTTTTTTTTTTT OPTI        TELAPSE      285.47 TCPU      281.24
 *******************************************************************************
 COORDINATE AND CELL OPTIMIZATION - POINT    7
 *******************************************************************************
 LATTICE PARAMETERS (ANGSTROMS AND DEGREES) - BOHR = 0.5291772083 ANGSTROM
 PRIMITIVE CELL - CENTRING CODE 1/0 VOLUME=    74.585315 - DENSITY  2.049 g/cm^3
         A              B              C           ALPHA      BETA       GAMMA 
     3.31359500     3.31359500     7.84375182    90.000000  90.000000 120.000000
 *******************************************************************************
 ATOMS IN THE ASYMMETRIC UNIT    2 - ATOMS IN THE UNIT CELL:    8
     ATOM                 X/A                 Y/B                 Z/C    
 *******************************************************************************
      1 T   3 LI    3.333333333333E-01 -3.333333333333E-01  1.036386369468E-01
      2 F   3 LI   -3.333333333333E-01  3.333333333333E-01 -3.963613630532E-01
      3 F   3 LI   -3.333333333333E-01  3.333333333333E-01 -1.036386369468E-01
      4 F   3 LI    3.333333333333E-01 -3.333333333333E-01  3.963613630532E-01
      5 T   8 O     3.333333333333E-01 -3.333333333333E-01 -1.538337780794E-01
      6 F   8 O    -3.333333333333E-01  3.333333333333E-01  3.461662219206E-01
      7 F   8 O    -3.333333333333E-01  3.333333333333E-01  1.538337780794E-01
      8 F   8 O     3.333333333333E-01 -3.333333333333E-01 -3.461662219206E-01

 T = ATOM BELONGING TO THE ASYMMETRIC UNIT

 TOTAL ENERGY(DFT)(AU)(  9) -3.3090093252448E+02     DE (AU)   -9.749E-05

 UPDATED TRUST RADIUS     0.500E+00

 SYMMETRY ALLOWED FORCES  (COORDINATE, FORCE)

    1  1.4239816E-03    2 -4.6531387E-03    3  3.4301749E-04    4 -3.9580978E-04

 GRADIENT NORM     0.004894  GRADIENT THRESHOLD     0.500000

 EIGENVALUES OF THE ESTIMATED HESSIAN
  0.3721E-01  0.1081      0.1188      0.9651    

 PREDICTED ENERGY CHANGE    -0.407E-04

 MAX GRADIENT      0.004653  THRESHOLD              0.000045 CONVERGED NO
 RMS GRADIENT      0.002447  THRESHOLD              0.000030 CONVERGED NO
 MAX DISPLAC.      0.028403  THRESHOLD              0.000180 CONVERGED NO
 RMS DISPLAC.      0.017479  THRESHOLD              0.000120 CONVERGED NO
 TTTTTTTTTTTTTTTTTTTTTTTTTTTTTT OPTI        TELAPSE      329.40 TCPU      324.89
 *******************************************************************************
 COORDINATE AND CELL OPTIMIZATION - POINT    8
 *******************************************************************************
 LATTICE PARAMETERS (ANGSTROMS AND DEGREES) - BOHR = 0.5291772083 ANGSTROM
 PRIMITIVE CELL - CENTRING CODE 1/0 VOLUME=    74.518245 - DENSITY  2.051 g/cm^3
         A              B              C           ALPHA      BETA       GAMMA 
     3.30884825     3.30884825     7.85919904    90.000000  90.000000 120.000000
 *******************************************************************************
 ATOMS IN THE ASYMMETRIC UNIT    2 - ATOMS IN THE UNIT CELL:    8
     ATOM                 X/A                 Y/B                 Z/C    
 *******************************************************************************
      1 T   3 LI    3.333333333333E-01 -3.333333333333E-01  1.042242235657E-01
      2 F   3 LI   -3.333333333333E-01  3.333333333333E-01 -3.957757764343E-01
      3 F   3 LI   -3.333333333333E-01  3.333333333333E-01 -1.042242235657E-01
      4 F   3 LI    3.333333333333E-01 -3.333333333333E-01  3.957757764343E-01
      5 T   8 O     3.333333333333E-01 -3.333333333333E-01 -1.541834144048E-01
      6 F   8 O    -3.333333333333E-01  3.333333333333E-01  3.458165855952E-01
      7 F   8 O    -3.333333333333E-01  3.333333333333E-01  1.541834144048E-01
      8 F   8 O     3.333333333333E-01 -3.333333333333E-01 -3.458165855952E-01

 T = ATOM BELONGING TO THE ASYMMETRIC UNIT

 TOTAL ENERGY(DFT)(AU)(  8) -3.3090099100924E+02     DE (AU)   -5.848E-05

 UPDATED TRUST RADIUS     0.500E+00

 SYMMETRY ALLOWED FORCES  (COORDINATE, FORCE)

    1  4.8127433E-04    2 -1.0368145E-03    3  1.0656947E-03    4 -4.9920915E-04

 GRADIENT NORM     0.001641  GRADIENT THRESHOLD     0.500000

 EIGENVALUES OF THE ESTIMATED HESSIAN
  0.3253E-01  0.8672E-01  0.1093      0.9787    

 PREDICTED ENERGY CHANGE    -0.176E-04

 MAX GRADIENT      0.001066  THRESHOLD              0.000045 CONVERGED NO
 RMS GRADIENT      0.000820  THRESHOLD              0.000030 CONVERGED NO
 MAX DISPLAC.      0.019117  THRESHOLD              0.000180 CONVERGED NO
 RMS DISPLAC.      0.013032  THRESHOLD              0.000120 CONVERGED NO
 TTTTTTTTTTTTTTTTTTTTTTTTTTTTTT OPTI        TELAPSE      370.78 TCPU      366.00
 *******************************************************************************
 COORDINATE AND CELL OPTIMIZATION - POINT    9
 *******************************************************************************
 LATTICE PARAMETERS (ANGSTROMS AND DEGREES) - BOHR = 0.5291772083 ANGSTROM
 PRIMITIVE CELL - CENTRING CODE 1/0 VOLUME=    74.690316 - DENSITY  2.046 g/cm^3
         A              B              C           ALPHA      BETA       GAMMA 
     3.30886967     3.30886967     7.87724478    90.000000  90.000000 120.000000
 *******************************************************************************
 ATOMS IN THE ASYMMETRIC UNIT    2 - ATOMS IN THE UNIT CELL:    8
     ATOM                 X/A                 Y/B                 Z/C    
 *******************************************************************************
      1 T   3 LI    3.333333333333E-01 -3.333333333333E-01  1.045965501847E-01
      2 F   3 LI   -3.333333333333E-01  3.333333333333E-01 -3.954034498153E-01
      3 F   3 LI   -3.333333333333E-01  3.333333333333E-01 -1.045965501847E-01
      4 F   3 LI    3.333333333333E-01 -3.333333333333E-01  3.954034498153E-01
      5 T   8 O     3.333333333333E-01 -3.333333333333E-01 -1.544519429610E-01
      6 F   8 O    -3.333333333333E-01  3.333333333333E-01  3.455480570390E-01
      7 F   8 O    -3.333333333333E-01  3.333333333333E-01  1.544519429610E-01
      8 F   8 O     3.333333333333E-01 -3.333333333333E-01 -3.455480570390E-01

 T = ATOM BELONGING TO THE ASYMMETRIC UNIT

 TOTAL ENERGY(DFT)(AU)(  8) -3.3090102043523E+02     DE (AU)   -2.943E-05

 UPDATED TRUST RADIUS     0.500E+00

 SYMMETRY ALLOWED FORCES  (COORDINATE, FORCE)

    1  5.9133261E-05    2  9.1801023E-04    3  7.9906691E-04    4 -4.5810888E-04

 GRADIENT NORM     0.001302  GRADIENT THRESHOLD     0.500000

 EIGENVALUES OF THE ESTIMATED HESSIAN
  0.2800E-01  0.6016E-01  0.1092       1.105    

 PREDICTED ENERGY CHANGE    -0.566E-05

 MAX GRADIENT      0.000918  THRESHOLD              0.000045 CONVERGED NO
 RMS GRADIENT      0.000651  THRESHOLD              0.000030 CONVERGED NO
 MAX DISPLAC.      0.011800  THRESHOLD              0.000180 CONVERGED NO
 RMS DISPLAC.      0.008100  THRESHOLD              0.000120 CONVERGED NO
 TTTTTTTTTTTTTTTTTTTTTTTTTTTTTT OPTI        TELAPSE      412.10 TCPU      407.05
 *******************************************************************************
 COORDINATE AND CELL OPTIMIZATION - POINT   10
 *******************************************************************************
 LATTICE PARAMETERS (ANGSTROMS AND DEGREES) - BOHR = 0.5291772083 ANGSTROM
 PRIMITIVE CELL - CENTRING CODE 1/0 VOLUME=    74.865597 - DENSITY  2.042 g/cm^3
         A              B              C           ALPHA      BETA       GAMMA 
     3.31024370     3.31024370     7.88917751    90.000000  90.000000 120.000000
 *******************************************************************************
 ATOMS IN THE ASYMMETRIC UNIT    2 - ATOMS IN THE UNIT CELL:    8
     ATOM                 X/A                 Y/B                 Z/C    
 *******************************************************************************
      1 T   3 LI    3.333333333333E-01 -3.333333333333E-01  1.047862322815E-01
      2 F   3 LI   -3.333333333333E-01  3.333333333333E-01 -3.952137677185E-01
      3 F   3 LI   -3.333333333333E-01  3.333333333333E-01 -1.047862322815E-01
      4 F   3 LI    3.333333333333E-01 -3.333333333333E-01  3.952137677185E-01
      5 T   8 O     3.333333333333E-01 -3.333333333333E-01 -1.545509963193E-01
      6 F   8 O    -3.333333333333E-01  3.333333333333E-01  3.454490036807E-01
      7 F   8 O    -3.333333333333E-01  3.333333333333E-01  1.545509963193E-01
      8 F   8 O     3.333333333333E-01 -3.333333333333E-01 -3.454490036807E-01

 T = ATOM BELONGING TO THE ASYMMETRIC UNIT

 N OF POINTS AFTER LAST CHANGE:    10

 REFERENCE GEOMETRY WILL BE CHANGED

 TOTAL ENERGY(DFT)(AU)(  9) -3.3090125807616E+02     DE (AU)   -2.376E-04

 SYMMETRY ALLOWED FORCES  (COORDINATE, FORCE)

    1 -5.7295757E-05    2  1.0836395E-03    3  1.9877096E-04    4 -3.1810942E-04

 GRADIENT NORM     0.001148  GRADIENT THRESHOLD     0.500000

 HESSIAN UPDATE SKIPPED

 EIGENVALUES OF THE ESTIMATED HESSIAN
  0.2800E-01  0.6016E-01  0.1092       1.105    

 PREDICTED ENERGY CHANGE    -0.635E-06

 MAX GRADIENT      0.001084  THRESHOLD              0.000045 CONVERGED NO
 RMS GRADIENT      0.000574  THRESHOLD              0.000030 CONVERGED NO
 MAX DISPLAC.      0.001593  THRESHOLD              0.000180 CONVERGED NO
 RMS DISPLAC.      0.000980  THRESHOLD              0.000120 CONVERGED NO
 TTTTTTTTTTTTTTTTTTTTTTTTTTTTTT OPTI        TELAPSE      451.06 TCPU      443.24
 *******************************************************************************
 COORDINATE AND CELL OPTIMIZATION - POINT   11
 *******************************************************************************
 LATTICE PARAMETERS (ANGSTROMS AND DEGREES) - BOHR = 0.5291772083 ANGSTROM
 PRIMITIVE CELL - CENTRING CODE 1/0 VOLUME=    74.874196 - DENSITY  2.041 g/cm^3
         A              B              C           ALPHA      BETA       GAMMA 
     3.31015986     3.31015986     7.89048333    90.000000  90.000000 120.000000
 *******************************************************************************
 ATOMS IN THE ASYMMETRIC UNIT    2 - ATOMS IN THE UNIT CELL:    8
     ATOM                 X/A                 Y/B                 Z/C    
 *******************************************************************************
      1 T   3 LI    3.333333333333E-01 -3.333333333333E-01  1.048119654061E-01
      2 F   3 LI   -3.333333333333E-01  3.333333333333E-01 -3.951880345939E-01
      3 F   3 LI   -3.333333333333E-01  3.333333333333E-01 -1.048119654061E-01
      4 F   3 LI    3.333333333333E-01 -3.333333333333E-01  3.951880345939E-01
      5 T   8 O     3.333333333333E-01 -3.333333333333E-01 -1.545291132406E-01
      6 F   8 O    -3.333333333333E-01  3.333333333333E-01  3.454708867594E-01
      7 F   8 O    -3.333333333333E-01  3.333333333333E-01  1.545291132406E-01
      8 F   8 O     3.333333333333E-01 -3.333333333333E-01 -3.454708867594E-01

 T = ATOM BELONGING TO THE ASYMMETRIC UNIT

 TOTAL ENERGY(DFT)(AU)( 34) -3.3090126135243E+02     DE (AU)   -3.276E-06

 UPDATED TRUST RADIUS     0.500E+00

 SYMMETRY ALLOWED FORCES  (COORDINATE, FORCE)

    1 -5.9267088E-05    2  5.1879913E-04    3  1.0573920E-04    4 -1.7915338E-04

 GRADIENT NORM     0.000562  GRADIENT THRESHOLD     0.500000

 EIGENVALUES OF THE ESTIMATED HESSIAN
  0.2504E-01  0.6006E-01  0.1105      0.6134    

 PREDICTED ENERGY CHANGE    -0.352E-06

 MAX GRADIENT      0.000519  THRESHOLD              0.000045 CONVERGED NO
 RMS GRADIENT      0.000281  THRESHOLD              0.000030 CONVERGED NO
 MAX DISPLAC.      0.002532  THRESHOLD              0.000180 CONVERGED NO
 RMS DISPLAC.      0.001375  THRESHOLD              0.000120 CONVERGED NO
 TTTTTTTTTTTTTTTTTTTTTTTTTTTTTT OPTI        TELAPSE      535.95 TCPU      527.53
 *******************************************************************************
 COORDINATE AND CELL OPTIMIZATION - POINT   12
 *******************************************************************************
 LATTICE PARAMETERS (ANGSTROMS AND DEGREES) - BOHR = 0.5291772083 ANGSTROM
 PRIMITIVE CELL - CENTRING CODE 1/0 VOLUME=    74.887821 - DENSITY  2.041 g/cm^3
         A              B              C           ALPHA      BETA       GAMMA 
     3.31002608     3.31002608     7.89255707    90.000000  90.000000 120.000000
 *******************************************************************************
 ATOMS IN THE ASYMMETRIC UNIT    2 - ATOMS IN THE UNIT CELL:    8
     ATOM                 X/A                 Y/B                 Z/C    
 *******************************************************************************
      1 T   3 LI    3.333333333333E-01 -3.333333333333E-01  1.048271976601E-01
      2 F   3 LI   -3.333333333333E-01  3.333333333333E-01 -3.951728023399E-01
      3 F   3 LI   -3.333333333333E-01  3.333333333333E-01 -1.048271976601E-01
      4 F   3 LI    3.333333333333E-01 -3.333333333333E-01  3.951728023399E-01
      5 T   8 O     3.333333333333E-01 -3.333333333333E-01 -1.545172596124E-01
      6 F   8 O    -3.333333333333E-01  3.333333333333E-01  3.454827403876E-01
      7 F   8 O    -3.333333333333E-01  3.333333333333E-01  1.545172596124E-01
      8 F   8 O     3.333333333333E-01 -3.333333333333E-01 -3.454827403876E-01

 T = ATOM BELONGING TO THE ASYMMETRIC UNIT

 TOTAL ENERGY(DFT)(AU)(  7) -3.3090126211932E+02     DE (AU)   -7.669E-07

 UPDATED TRUST RADIUS     0.500E+00

 SYMMETRY ALLOWED FORCES  (COORDINATE, FORCE)

    1 -1.4553996E-05    2 -5.7528927E-06    3 -1.6351910E-06    4 -1.4355965E-05

 GRADIENT NORM     0.000021  GRADIENT THRESHOLD     0.500000

 EIGENVALUES OF THE ESTIMATED HESSIAN
  0.2393E-01  0.6024E-01  0.1072      0.6350    

 PREDICTED ENERGY CHANGE    -0.308E-08

 MAX GRADIENT      0.000015  THRESHOLD              0.000045 CONVERGED YES
 RMS GRADIENT      0.000011  THRESHOLD              0.000030 CONVERGED YES
 MAX DISPLAC.      0.000363  THRESHOLD              0.000180 CONVERGED NO
 RMS DISPLAC.      0.000186  THRESHOLD              0.000120 CONVERGED NO
 TTTTTTTTTTTTTTTTTTTTTTTTTTTTTT OPTI        TELAPSE      568.60 TCPU      559.95
 *******************************************************************************
 COORDINATE AND CELL OPTIMIZATION - POINT   13
 *******************************************************************************
 LATTICE PARAMETERS (ANGSTROMS AND DEGREES) - BOHR = 0.5291772083 ANGSTROM
 PRIMITIVE CELL - CENTRING CODE 1/0 VOLUME=    74.887965 - DENSITY  2.041 g/cm^3
         A              B              C           ALPHA      BETA       GAMMA 
     3.30998029     3.30998029     7.89279058    90.000000  90.000000 120.000000
 *******************************************************************************
 ATOMS IN THE ASYMMETRIC UNIT    2 - ATOMS IN THE UNIT CELL:    8
     ATOM                 X/A                 Y/B                 Z/C    
 *******************************************************************************
      1 T   3 LI    3.333333333333E-01 -3.333333333333E-01  1.048258303866E-01
      2 F   3 LI   -3.333333333333E-01  3.333333333333E-01 -3.951741696134E-01
      3 F   3 LI   -3.333333333333E-01  3.333333333333E-01 -1.048258303866E-01
      4 F   3 LI    3.333333333333E-01 -3.333333333333E-01  3.951741696134E-01
      5 T   8 O     3.333333333333E-01 -3.333333333333E-01 -1.545196252862E-01
      6 F   8 O    -3.333333333333E-01  3.333333333333E-01  3.454803747138E-01
      7 F   8 O    -3.333333333333E-01  3.333333333333E-01  1.545196252862E-01
      8 F   8 O     3.333333333333E-01 -3.333333333333E-01 -3.454803747138E-01

 T = ATOM BELONGING TO THE ASYMMETRIC UNIT

 TOTAL ENERGY(DFT)(AU)(  7) -3.3090126219150E+02     DE (AU)   -7.218E-08

 UPDATED TRUST RADIUS     0.500E+00

 SYMMETRY ALLOWED FORCES  (COORDINATE, FORCE)

    1 -4.1042912E-06    2 -5.7471730E-06    3 -3.0173315E-06    4 -2.6149109E-06

 GRADIENT NORM     0.000008  GRADIENT THRESHOLD     0.500000

 EIGENVALUES OF THE ESTIMATED HESSIAN
  0.2291E-01  0.5561E-01  0.9216E-01  0.6352    

 PREDICTED ENERGY CHANGE    -0.340E-09

 MAX GRADIENT      0.000006  THRESHOLD              0.000045 CONVERGED YES
 RMS GRADIENT      0.000004  THRESHOLD              0.000030 CONVERGED YES
 MAX DISPLAC.      0.000100  THRESHOLD              0.000180 CONVERGED YES
 RMS DISPLAC.      0.000059  THRESHOLD              0.000120 CONVERGED YES

 CONVERGENCE TESTS SATISFIED AFTER  13 ENERGY AND GRADIENT CALCULATIONS
 +++++++++++++++++++++++++++++++++++++++++++++++++++++++++++++++++++++++++++++++
 FINALRUN OPTION: RE-STARTING OPTIMIZATION
 +++++++++++++++++++++++++++++++++++++++++++++++++++++++++++++++++++++++++++++++
 TTTTTTTTTTTTTTTTTTTTTTTTTTTTTT OPTI        TELAPSE      600.98 TCPU      592.12
 *******************************************************************************
 COORDINATE AND CELL OPTIMIZATION - POINT   14
 *******************************************************************************
 LATTICE PARAMETERS (ANGSTROMS AND DEGREES) - BOHR = 0.5291772083 ANGSTROM
 PRIMITIVE CELL - CENTRING CODE 1/0 VOLUME=    74.887269 - DENSITY  2.041 g/cm^3
         A              B              C           ALPHA      BETA       GAMMA 
     3.30995683     3.30995683     7.89282922    90.000000  90.000000 120.000000
 *******************************************************************************
 ATOMS IN THE ASYMMETRIC UNIT    2 - ATOMS IN THE UNIT CELL:    8
     ATOM                 X/A                 Y/B                 Z/C    
 *******************************************************************************
      1 T   3 LI    3.333333333333E-01 -3.333333333333E-01  1.048246209320E-01
      2 F   3 LI   -3.333333333333E-01  3.333333333333E-01 -3.951753790680E-01
      3 F   3 LI   -3.333333333333E-01  3.333333333333E-01 -1.048246209320E-01
      4 F   3 LI    3.333333333333E-01 -3.333333333333E-01  3.951753790680E-01
      5 T   8 O     3.333333333333E-01 -3.333333333333E-01 -1.545204150854E-01
      6 F   8 O    -3.333333333333E-01  3.333333333333E-01  3.454795849146E-01
      7 F   8 O    -3.333333333333E-01  3.333333333333E-01  1.545204150854E-01
      8 F   8 O     3.333333333333E-01 -3.333333333333E-01 -3.454795849146E-01

 T = ATOM BELONGING TO THE ASYMMETRIC UNIT

 REFERENCE GEOMETRY WILL BE CHANGED

 TOTAL ENERGY(DFT)(AU)( 71) -3.3090126066840E+02     DE (AU)    1.523E-06

 SYMMETRY ALLOWED FORCES  (COORDINATE, FORCE)

    1 -3.9425344E-06    2 -3.2953660E-06    3 -4.6671758E-06    4  3.6857580E-06

 GRADIENT NORM     0.000008  GRADIENT THRESHOLD     0.500000

 HESSIAN UPDATE SKIPPED

 EIGENVALUES OF THE ESTIMATED HESSIAN
  0.2291E-01  0.5561E-01  0.9216E-01  0.6352    

 PREDICTED ENERGY CHANGE    -0.652E-09

 MAX GRADIENT      0.000005  THRESHOLD              0.000045 CONVERGED YES
 RMS GRADIENT      0.000004  THRESHOLD              0.000030 CONVERGED YES
 MAX DISPLAC.      0.000163  THRESHOLD              0.000180 CONVERGED YES
 RMS DISPLAC.      0.000107  THRESHOLD              0.000120 CONVERGED YES

 CONVERGENCE TESTS SATISFIED AFTER  14 ENERGY AND GRADIENT CALCULATIONS

 ******************************************************************
 * OPT END - CONVERGED * E(AU):  -3.309012606684E+02  POINTS   14 *
 ******************************************************************

   BAND GAP:                      4.5300  eV 

 EIGENVECTORS IN FORTRAN UNIT  8

 NEIGHBORS OF THE NON-EQUIVALENT ATOMS

 N = NUMBER OF NEIGHBORS AT DISTANCE R
    ATOM  N     R/ANG      R/AU   NEIGHBORS (ATOM LABELS AND CELL INDICES)
   1 LI   3     1.9508     3.6866    7 O    0 0 0    7 O   -1 0 0    7 O    0 1 0
   1 LI   1     2.0470     3.8682    5 O    0 0 0
   1 LI   1     2.2917     4.3307    4 LI   0 0 0
   1 LI   3     2.5279     4.7770    3 LI   0 0 0    3 LI  -1 0 0    3 LI   0 1 0
   1 LI   3     2.6944     5.0917    6 O    0 0 0    6 O   -1 0 0    6 O    0 1 0
   1 LI   6     3.3100     6.2549    1 LI  -1-1 0    1 LI   1 1 0    1 LI  -1 0 0
                                     1 LI   1 0 0    1 LI   0-1 0    1 LI   0 1 0

   5 O    1     1.5072     2.8482    8 O    0 0 0
   5 O    3     1.9508     3.6866    3 LI   0 0 0    3 LI  -1 0 0    3 LI   0 1 0
   5 O    1     2.0470     3.8682    1 LI   0 0 0
   5 O    3     2.6944     5.0917    2 LI   0 0 0    2 LI  -1 0 0    2 LI   0 1 0
   5 O    3     3.0987     5.8556    7 O    0 0 0    7 O   -1 0 0    7 O    0 1 0
   5 O    6     3.3100     6.2549    5 O   -1-1 0    5 O    1 1 0    5 O   -1 0 0
                                     5 O    1 0 0    5 O    0-1 0    5 O    0 1 0


 FINAL OPTIMIZED GEOMETRY - DIMENSIONALITY OF THE SYSTEM      3
 (NON PERIODIC DIRECTION: LATTICE PARAMETER FORMALLY SET TO 500)
 *******************************************************************************
 LATTICE PARAMETERS (ANGSTROMS AND DEGREES) - BOHR = 0.5291772083 ANGSTROM
 PRIMITIVE CELL - CENTRING CODE 1/0 VOLUME=    74.887269 - DENSITY  2.041 g/cm^3
         A              B              C           ALPHA      BETA       GAMMA 
     3.30995683     3.30995683     7.89282922    90.000000  90.000000 120.000000
 *******************************************************************************
 ATOMS IN THE ASYMMETRIC UNIT    2 - ATOMS IN THE UNIT CELL:    8
     ATOM                 X/A                 Y/B                 Z/C    
 *******************************************************************************
      1 T   3 LI    3.333333333333E-01 -3.333333333333E-01  1.048246209320E-01
      2 F   3 LI   -3.333333333333E-01  3.333333333333E-01 -3.951753790680E-01
      3 F   3 LI   -3.333333333333E-01  3.333333333333E-01 -1.048246209320E-01
      4 F   3 LI    3.333333333333E-01 -3.333333333333E-01  3.951753790680E-01
      5 T   8 O     3.333333333333E-01 -3.333333333333E-01 -1.545204150854E-01
      6 F   8 O    -3.333333333333E-01  3.333333333333E-01  3.454795849146E-01
      7 F   8 O    -3.333333333333E-01  3.333333333333E-01  1.545204150854E-01
      8 F   8 O     3.333333333333E-01 -3.333333333333E-01 -3.454795849146E-01

 T = ATOM BELONGING TO THE ASYMMETRIC UNIT
 INFORMATION **** fort.34 **** GEOMETRY OUTPUT FILE

 DIRECT LATTICE VECTORS CARTESIAN COMPONENTS (ANGSTROM)
          X                    Y                    Z
   0.286650669728E+01  -0.165497841331E+01   0.000000000000E+00
  -0.102599585080E-18   0.330995682662E+01   0.000000000000E+00
   0.000000000000E+00   0.000000000000E+00   0.789282921801E+01


 CARTESIAN COORDINATES - PRIMITIVE CELL
 *******************************************************************************
 *      ATOM          X(ANGSTROM)         Y(ANGSTROM)         Z(ANGSTROM)
 *******************************************************************************
    1     3 LI   -1.911004464854E+00 -2.020501140084E-16  8.273628308592E-01
    2     3 LI   -9.555022324269E-01 -1.654978413309E+00 -3.119051778146E+00
    3     3 LI   -9.555022324269E-01 -1.654978413309E+00 -8.273628308592E-01
    4     3 LI   -1.911004464854E+00  4.205919078410E-17  3.119051778146E+00
    5     8 O    -1.911004464854E+00 -2.020501140084E-16 -1.219603246965E+00
    6     8 O    -9.555022324269E-01 -1.654978413309E+00  2.726811362040E+00
    7     8 O    -9.555022324269E-01 -1.654978413309E+00  1.219603246965E+00
    8     8 O    -1.911004464854E+00  4.205919078410E-17 -2.726811362040E+00

 DFT PARAMETERS

     ATOM       ELECTRONS   NET CHARGE   R(ANGSTROM)
   1   3  LI      3.0000      0.0000     1.57000000
   5   8  O       8.0000      0.0000     0.74000000

 SIZE OF GRID=      14818
 TTTTTTTTTTTTTTTTTTTTTTTTTTTTTT MAKE_GRID2  TELAPSE      760.29 TCPU      750.26
 BECKE WEIGHT FUNCTION
 RADSAFE =     2.00
 TOLERANCES - DENSITY:10**- 6; POTENTIAL:10**- 9; GRID WGT:10**-14

 RADIAL INTEGRATION  - INTERVALS (POINTS,UPPER LIMIT):            1( 99,  4.0*R)

 ANGULAR INTEGRATION - INTERVALS (ACCURACY LEVEL [N. POINTS] UPPER LIMIT):
  1(  6[ 146]   0.2)  2( 11[ 302]   0.5)  3( 14[ 590]   0.9)  4( 18[1454]   3.5)
  5( 14[ 590]9999.0)
 EEEEEEEEEE INT_CALC TERMINATION  DATE 25 07 2023 TIME 17:17:58.4

 *******************************************************************************
 ICSD_CollCode50658.cif                                                          
 CRYSTAL - SCF - TYPE OF CALCULATION :  RESTRICTED CLOSED SHELL
 *******************************************************************************

 CAPPA:IS1  8;IS2  8;IS3  8; K PTS MONK NET  50; SYMMOPS:K SPACE  24;G SPACE  24

 TTTTTTTTTTTTTTTTTTTTTTTTTTTTTT SDIK        TELAPSE      760.32 TCPU      750.29

 INFORMATION FROM INTEGRAL EVALUATION

 RESTART FROM A PREVIOUS DENSITY MATRIX - DEP ACTIVE
 NUMBER OF COUPLE SETS (NEW, OLD, FOUND):     345     345     345
 NUMBER OF IRREDUCIBLE G VECTORS        :    5342    5342    5342
 TTTTTTTTTTTTTTTTTTTTTTTTTTTTTT MOQGAD      TELAPSE      760.32 TCPU      750.29
 TTTTTTTTTTTTTTTTTTTTTTTTTTTTTT SHELLXN     TELAPSE      762.10 TCPU      752.06
 TTTTTTTTTTTTTTTTTTTTTTTTTTTTTT MONMO3      TELAPSE      762.10 TCPU      752.06
 NUMERICALLY INTEGRATED DENSITY     43.9998931052
 TTTTTTTTTTTTTTTTTTTTTTTTTTTTTT NUMDFT      TELAPSE      762.22 TCPU      752.18
 CYC   0 ETOT(AU) -3.309012607752E+02 DETOT -3.31E+02 tst  6.09E-18 PX  1.00E+00
 TTTTTTTTTTTTTTTTTTTTTTTTTTTTTT DIIS        TELAPSE      762.22 TCPU      752.18
 TTTTTTTTTTTTTTTTTTTTTTTTTTTTTT FDIK        TELAPSE      762.23 TCPU      752.18
 INSULATING STATE
 TOP OF VALENCE BANDS -    BAND     22; K    1; EIG -2.2605390E-01 AU
 BOTTOM OF VIRTUAL BANDS - BAND     23; K    1; EIG -5.9612463E-02 AU
 DIRECT ENERGY BAND GAP:   4.5291 eV
 TTTTTTTTTTTTTTTTTTTTTTTTTTTTTT PDIG        TELAPSE      762.24 TCPU      752.19
 TTTTTTTTTTTTTTTTTTTTTTTTTTTTTT MOQGAD      TELAPSE      762.24 TCPU      752.19
 TTTTTTTTTTTTTTTTTTTTTTTTTTTTTT SHELLXN     TELAPSE      764.01 TCPU      753.96
 TTTTTTTTTTTTTTTTTTTTTTTTTTTTTT MONMO3      TELAPSE      764.01 TCPU      753.96
 NUMERICALLY INTEGRATED DENSITY     43.9998931044
 TTTTTTTTTTTTTTTTTTTTTTTTTTTTTT NUMDFT      TELAPSE      764.13 TCPU      754.08
 CYC   1 ETOT(AU) -3.309012605873E+02 DETOT  1.88E-07 tst  0.00E+00 PX  6.17E-04
 TTTTTTTTTTTTTTTTTTTTTTTTTTTTTT DIIS        TELAPSE      764.14 TCPU      754.08
 DIIS TEST: 0.67630E-09 AT SCF   CYCLE   1 - MIX   30 %
 TTTTTTTTTTTTTTTTTTTTTTTTTTTTTT FDIK        TELAPSE      764.14 TCPU      754.09
 INSULATING STATE
 TOP OF VALENCE BANDS -    BAND     22; K    1; EIG -2.2605871E-01 AU
 BOTTOM OF VIRTUAL BANDS - BAND     23; K    1; EIG -5.9617709E-02 AU
 DIRECT ENERGY BAND GAP:   4.5291 eV
 TTTTTTTTTTTTTTTTTTTTTTTTTTTTTT PDIG        TELAPSE      764.15 TCPU      754.10
 TTTTTTTTTTTTTTTTTTTTTTTTTTTTTT MOQGAD      TELAPSE      764.16 TCPU      754.10
 TTTTTTTTTTTTTTTTTTTTTTTTTTTTTT SHELLXN     TELAPSE      765.93 TCPU      755.86
 TTTTTTTTTTTTTTTTTTTTTTTTTTTTTT MONMO3      TELAPSE      765.93 TCPU      755.87
 NUMERICALLY INTEGRATED DENSITY     43.9998931044
 TTTTTTTTTTTTTTTTTTTTTTTTTTTTTT NUMDFT      TELAPSE      766.05 TCPU      755.98
 CYC   2 ETOT(AU) -3.309012605616E+02 DETOT  2.57E-08 tst  3.29E-11 PX  1.62E-05
 TTTTTTTTTTTTTTTTTTTTTTTTTTTTTT DIIS        TELAPSE      766.06 TCPU      756.00
 DIIS TEST: 0.82403E-10 AT SCF   CYCLE   2 - DIIS ACTIVE - HISTORY:     2 CYCLES
 TTTTTTTTTTTTTTTTTTTTTTTTTTTTTT FDIK        TELAPSE      766.07 TCPU      756.00
 INSULATING STATE
 TOP OF VALENCE BANDS -    BAND     22; K    1; EIG -2.2606229E-01 AU
 BOTTOM OF VIRTUAL BANDS - BAND     23; K    1; EIG -5.9621193E-02 AU
 DIRECT ENERGY BAND GAP:   4.5291 eV
 TTTTTTTTTTTTTTTTTTTTTTTTTTTTTT PDIG        TELAPSE      766.08 TCPU      756.01
 TTTTTTTTTTTTTTTTTTTTTTTTTTTTTT MOQGAD      TELAPSE      766.08 TCPU      756.01
 TTTTTTTTTTTTTTTTTTTTTTTTTTTTTT SHELLXN     TELAPSE      767.86 TCPU      757.77
 TTTTTTTTTTTTTTTTTTTTTTTTTTTTTT MONMO3      TELAPSE      767.86 TCPU      757.78
 NUMERICALLY INTEGRATED DENSITY     43.9998931044
 TTTTTTTTTTTTTTTTTTTTTTTTTTTTTT NUMDFT      TELAPSE      767.98 TCPU      757.89
 CYC   3 ETOT(AU) -3.309012605498E+02 DETOT  1.18E-08 tst  7.72E-12 PX  7.81E-06
 TTTTTTTTTTTTTTTTTTTTTTTTTTTTTT DIIS        TELAPSE      767.98 TCPU      757.90
 DIIS TEST: 0.42713E-10 AT SCF   CYCLE   3 - DIIS ACTIVE - HISTORY:     3 CYCLES
 TTTTTTTTTTTTTTTTTTTTTTTTTTTTTT FDIK        TELAPSE      767.99 TCPU      757.90
 INSULATING STATE
 TOP OF VALENCE BANDS -    BAND     22; K    1; EIG -2.2606163E-01 AU
 BOTTOM OF VIRTUAL BANDS - BAND     23; K    1; EIG -5.9620746E-02 AU
 DIRECT ENERGY BAND GAP:   4.5291 eV
 TTTTTTTTTTTTTTTTTTTTTTTTTTTTTT PDIG        TELAPSE      768.00 TCPU      757.91
[...]
   1    -9.1146E-01 -7.3030E-18 -1.5980E-20
   2    -2.1175E-18 -9.1146E-01 -1.1071E-20
   3    -4.6977E-25 -1.5846E-24 -1.2292E+00

 +++ SYMMETRY ADAPTION OF VIBRATIONAL MODES +++

 SYMMETRY INFORMATION:
 K-LITTLE GROUP: CLASS TABLE, CHARACTER TABLE.
 IRREP-(DIMENSION, NO. IRREDUCIBLE SETS)
 [WARNINGS: (1) ONLY ACTIVE IRREPS ARE GENERATED AND LISTED.
            (2) ONLY RELEVANT CLASSES ARE CONSIDERED IN THE CHARACTER TABLE
            (3) SYMBOLS MAY NOT FULLY COINCIDE WITH THOSE FROM TEXT BOOKS.]

 (P, D, RP, RD, STAND FOR PAIRING, DOUBLING, REAL PAIRING AND REAL DOUBLING 
 OF THE IRREPS (SEE MANUAL))

 CLASS  | GROUP OPERATORS (SEE SYMMOPS KEYWORD)
 --------------------------------------------------------------------
 C2     |   2;
 C3     |   3;   4;
 C6     |   5;   6;
 C2'    |   7;   8;   9;
 C2''   |  10;  12;  11;
 I      |  13;
 SGH    |  14;
 S6     |  15;  16;
 S6'    |  17;  18;
 SGV    |  19;  20;  21;
 SGV'   |  22;  24;  23;

 IRREP/CLA      E     C2     C3     C6    C2'   C2''      I    SGH     S6    S6'
 -------------------------------------------------------------------------------
  MULTIP |      1      1      2      2      3      3      1      1      2      2
 -------------------------------------------------------------------------------
    A1g  |   1.00   1.00   1.00   1.00   1.00   1.00   1.00   1.00   1.00   1.00
    B1g  |   1.00  -1.00   1.00  -1.00   1.00  -1.00   1.00  -1.00   1.00  -1.00
    E1g  |   2.00  -2.00  -1.00   1.00   0.00   0.00   2.00  -2.00  -1.00   1.00
    E2g  |   2.00   2.00  -1.00  -1.00   0.00   0.00   2.00   2.00  -1.00  -1.00
    A2u  |   1.00   1.00   1.00   1.00  -1.00  -1.00  -1.00  -1.00  -1.00  -1.00
    B2u  |   1.00  -1.00   1.00  -1.00  -1.00   1.00  -1.00   1.00  -1.00   1.00
    E1u  |   2.00  -2.00  -1.00   1.00   0.00   0.00  -2.00   2.00   1.00  -1.00
    E2u  |   2.00   2.00  -1.00  -1.00   0.00   0.00  -2.00  -2.00   1.00   1.00

 IRREP/CLA    SGV   SGV'
 -----------------------
  MULTIP |      3      3
 -----------------------
    A1g  |   1.00   1.00
    B1g  |   1.00  -1.00
    E1g  |   0.00   0.00
    E2g  |   0.00   0.00
    A2u  |   1.00   1.00
    B2u  |   1.00  -1.00
    E1u  |   0.00   0.00
    E2u  |   0.00   0.00

 A1g-(1,   2); B1g-(1,   2); E1g-(2,   2); E2g-(2,   2);
 A2u-(1,   2); B2u-(1,   2); E1u-(2,   2); E2u-(2,   2);

 BORN CHARGE VECTOR IN THE BASIS OF NORMAL MODES (UNITS OF e*M_E**(-1/2) ).
 e AND M_E ARE UNITS OF ELECTRON CHARGE AND MASS, RESPECTIVELY.

 MODE         X              Y              Z
   1   -0.20062E-18   -0.27941E-19    0.23584E-25
   2    0.16379E-20   -0.59321E-18   -0.21419E-25
   3   -0.64271E-18    0.68738E-19   -0.13947E-25
   4   -0.45521E-19   -0.72870E-18    0.11396E-25
   5   -0.53861E-22   -0.11029E-22   -0.39635E-05
   6    0.22288E-08    0.22587E-19    0.53976E-26
   7    0.90347E-19    0.22288E-08   -0.30909E-41
   8    0.10153E-21   -0.16652E-22   -0.26080E-01
   9    0.18272E-18    0.81532E-20    0.13114E-25
  10    0.67707E-20   -0.12527E-18   -0.75144E-26
  11    0.45468E-22   -0.51788E-22   -0.52851E-18
  12   -0.46328E-22    0.56771E-22    0.13206E-18
  13    0.39539E-18    0.51980E-19   -0.25921E-25
  14   -0.18302E-19   -0.24146E-20    0.33602E-25
  15   -0.19334E-01   -0.14959E-19   -0.76637E-26
  16   -0.10774E-19   -0.19334E-01    0.58487E-26
  17   -0.22833E-18   -0.11352E-19   -0.19841E-25
  18    0.49035E-19   -0.21346E-19    0.39973E-26
  19    0.42320E-18   -0.26128E-19   -0.41224E-26
  20   -0.37138E-20   -0.72080E-18    0.55964E-26
  21    0.56526E-22   -0.43347E-22    0.24195E-18
  22    0.34083E-22    0.74434E-22    0.29050E-18
  23   -0.17928E-21   -0.96171E-22    0.28967E-18
  24    0.11053E-21    0.23367E-22   -0.28974E-18

 HHHHHHHHHHHHHHHHHHHHHHHHHHHHHHHHHHHHHHHHHHHHHHHHHHHHHHHHHHHHHHHHHHHHHHHHHHHHHH
 VIBRATIONAL CONTRIBUTIONS TO THE STATIC DIELECTRIC TENSOR (OSCILLATOR
 STRENGTHS) ARE PURE NUMBERS. THEY ARE COMPUTED FOR EACH nth MODE AS:

   f_(n,ij) = 1 / (4 * pi * eps0) * 4 * pi / V * Z_(n,i) * Z_(n,j) / nu_n**2

 WHERE:
  1/(4*pi*eps0)  1 A.U. [M*L**3*T**(-4)*C**(-2)]
  V              CELL VOLUME (BOHR**3) [L**3]
  Z_(n,i)        ith COMPONENT OF BORN CHARGE VECTOR IN THE BASIS
                 OF NORMAL MODES ( e*M_E**(-1/2) ) [C*T*M**(-1/2)]
  nu_n           FREQUENCY (HARTREE) [T**(-1)]
  e, M_E         UNITS OF ELECTRON CHARGE AND MASS, RESPECTIVELY
  M, L, T, C     MASS, LENGTH, TIME, CURRENT, RESPECTIVELY

 HHHHHHHHHHHHHHHHHHHHHHHHHHHHHHHHHHHHHHHHHHHHHHHHHHHHHHHHHHHHHHHHHHHHHHHHHHHHHH

 MODE      CARTESIAN AXES SYSTEM

   8       0.00000   -0.00000   -0.00000
          -0.00000    0.00000    0.00000
          -0.00000    0.00000  152.13641

  15       1.91784    0.00000    0.00000
           0.00000    0.00000    0.00000
           0.00000    0.00000    0.00000

  16       0.00000    0.00000   -0.00000
           0.00000    1.91784   -0.00000
          -0.00000   -0.00000    0.00000

 SUM TENSOR OF THE VIBRATIONAL CONTRIBUTIONS TO THE STATIC DIELECTRIC     TENSOR

           1.91784    0.00000   -0.00000
           0.00000    1.91784    0.00000
          -0.00000    0.00000  152.13641

 INTEGRATED IR INTENSITIES, IN UNITS OF KM/MOL, ARE COMPUTED UNDER THE
 HYPOTHESIS OF ISOTROPIC RESPONSE (I.E. POWDER SAMPLE):

   INTENS_n = 1 / (4 * pi * eps0) * pi * N_AV / 3 / c**2 *
                             * d_n * ( Z_(n,x)**2 + Z_(n,y)**2 + Z_(n,z)**2 )
            = 0.17770712E+07 * d_n * ( Z_(n,x)**2 + Z_(n,y)**2 + Z_(n,z)**2 )

 WHERE:
  1/(4*pi*eps0)  1 A.U. [M*L**3*T**(-4)*C**(-2)]
  N_AV           AVOGADRO'S NUMBER [QM**(-1)]
  c              SPEED OF LIGHT [L*T**(-1)]
  d_n            DEGENERACY OF THE MODE
  Z_(n,x)        xth COMPONENT OF BORN CHARGE VECTOR IN THE BASIS
                 OF NORMAL MODES ( e*M_E**(-1/2) ) [C*T*M**(-1/2)]
  M,L,T,C,QM     MASS, LENGTH, TIME, CURRENT, QUANTITY OF MATTER, RESPECTIVELY

 HHHHHHHHHHHHHHHHHHHHHHHHHHHHHHHHHHHHHHHHHHHHHHHHHHHHHHHHHHHHHHHHHHHHHHHHHHHHHH
 EIGENVALUES (EIGV) OF THE MASS WEIGHTED HESSIAN MATRIX AND HARMONIC TRANSVERSE
 OPTICAL (TO) FREQUENCIES. IRREP LABELS REFER TO SYMMETRY REPRESENTATION
 ANALYSIS; A AND I INDICATE WHETHER THE MODE IS ACTIVE OR INACTIVE,
 RESPECTIVELY, FOR IR AND RAMAN; INTEGRATED IR INTENSITIES IN BRACKETS.

 CONVERSION FACTORS FOR FREQUENCIES:
      1 CM**(-1) =   0.4556335E-05 HARTREE
      1 THZ      =   0.3335641E+02 CM**(-1)

 HHHHHHHHHHHHHHHHHHHHHHHHHHHHHHHHHHHHHHHHHHHHHHHHHHHHHHHHHHHHHHHHHHHHHHHHHHHHHH

    MODES         EIGV          FREQUENCIES     IRREP  IR   INTENS    RAMAN
             (HARTREE**2)   (CM**-1)     (THZ)             (KM/MOL)
    1-   2   -0.5435E-06   -161.8010   -4.8507  (E1g)   I (     0.00)   A
    3-   4   -0.4845E-06   -152.7752   -4.5801  (E2u)   I (     0.00)   I
    5-   5    0.4522E-22      0.0000    0.0000  (A2u)   A (     0.00)   I
    6-   7    0.1069E-21      0.0000    0.0000  (E1u)   A (     0.00)   I
    8-   8    0.1112E-06     73.1783    2.1938  (A2u)   A (  1208.73)   I
    9-  10    0.4026E-06    139.2666    4.1751  (E2g)   I (     0.00)   A
   11-  11    0.1407E-05    260.2946    7.8034  (B1g)   I (     0.00)   I
   12-  12    0.2698E-05    360.5261   10.8083  (B1g)   I (     0.00)   I
   13-  14    0.4081E-05    443.3871   13.2924  (E2u)   I (     0.00)   I
   15-  16    0.4847E-05    483.1712   14.4851  (E1u)   A (  1328.54)   I
   17-  18    0.5274E-05    504.0304   15.1105  (E1g)   I (     0.00)   A
   19-  20    0.5491E-05    514.2716   15.4175  (E2g)   I (     0.00)   A
   21-  21    0.5616E-05    520.0969   15.5921  (A1g)   I (     0.00)   A
   22-  22    0.7080E-05    583.9700   17.5070  (B2u)   I (     0.00)   I
   23-  23    0.1866E-04    948.0876   28.4230  (B2u)   I (     0.00)   I
   24-  24    0.1891E-04    954.3318   28.6101  (A1g)   I (     0.00)   A

 <RAMAN><RAMAN><RAMAN><RAMAN><RAMAN><RAMAN><RAMAN><RAMAN><RAMAN><RAMAN><RAMAN>
 <RAMAN><RAMAN><RAMAN><RAMAN><RAMAN><RAMAN><RAMAN><RAMAN><RAMAN><RAMAN><RAMAN>

 RAMAN INTENSITIES UNDER PLACZECK APPROXIMATION ARE COMPUTED AS:

  DIRECTIONAL (SINGLE CRYSTAL) :

     I_ij(n)= VOLUME*X(n,i,j)**2

  ISOTROPIC (POLYCRYSTALLINE POWDERS, GASES) :

     G_0(n) = 1/3*(SUM_i X(n,i,i))**2
     G_1(n) = 1/2*SUM_i,j (X(n,i,j)+X(n,j,i))**2
     G_2(n) = 1/3*SUM_i,j (X(n,i,i)-X(n,j,j))**2

     I_par(n)  = VOLUME*( 15*G_0(n) + 6*(G_1(n) + G_2(n)) )
     I_perp(n) = VOLUME*9/2*( G_1(n) + G_2(n) )
     I_tot(n)  = I_par(n) + I_perp(n)

  WHERE X(n,i,j) IS THE i,j-th COMPONENT OF THE RAMAN TENSOR
  IN THE BASIS OF NORMAL MODE n

  ALL VALUES ARE NORMALIZED TO THE MOST INTENSE PEAK


  INTENSITIES HAVE BEEN CALCULATED AT 
  TEMPERATURE                  :    298.0 K
  FREQUENCY OF INCOMING LASER  :    514.0 NM


 REFERENCES TO BE QUOTED FOR RAMAN INTENSITIES:

 L.MASCHIO, B.KIRTMAN, M.RERAT, R.ORLANDO and R.DOVESI, JCP 139, 164101 (2013)
 L.MASCHIO, B.KIRTMAN, M.RERAT, R.ORLANDO and R.DOVESI, JCP 139, 164102 (2013)

  --
  POLYCRYSTALLINE ISOTROPIC INTENSITIES (ARBITRARY UNITS)

    MODES    FREQUENCIES           I_tot     I_par    I_perp
  ----------------------------------------------------------------
    9-  10      139.2666 (E2g)      0.08      0.05      0.03
   17-  18      504.0304 (E1g)      0.81      0.46      0.35
   19-  20      514.2716 (E2g)     72.19     41.25     30.94
   21-  21      520.0969 (A1g)      3.58      2.87      0.71
   24-  24      954.3318 (A1g)   1000.00    768.42    231.58

  --
  SINGLE CRYSTAL DIRECTIONAL INTENSITIES (ARBITRARY UNITS)

    MODES    FREQUENCIES          I_xx    I_xy    I_xz    I_yy    I_yz    I_zz
  ----------------------------------------------------------------------------
    9-  10      139.2666 (E2g)    0.02    0.02    0.00    0.02    0.00    0.00
   17-  18      504.0304 (E1g)    0.00    0.00    0.23    0.00    0.23    0.00
   19-  20      514.2716 (E2g)   20.97   20.97    0.00   20.97    0.00    0.00
   21-  21      520.0969 (A1g)    1.66    0.00    0.00    1.66    0.00    0.17
   24-  24      954.3318 (A1g)    0.87    0.00    0.00    0.87    0.00 1000.00

 <RAMAN><RAMAN><RAMAN><RAMAN><RAMAN><RAMAN><RAMAN><RAMAN><RAMAN><RAMAN><RAMAN>
 <RAMAN><RAMAN><RAMAN><RAMAN><RAMAN><RAMAN><RAMAN><RAMAN><RAMAN><RAMAN><RAMAN>


 NORMAL MODES NORMALIZED TO CLASSICAL AMPLITUDES (IN BOHR)

 FREQ(CM**-1)   -161.80   -161.80   -152.78   -152.78      0.00      0.00

 AT.   1 LI X     0.0853    0.0000   -0.0951    0.0000    0.0000   -0.1042
            Y     0.0000    0.0853    0.0000   -0.0951    0.0000    0.0000
            Z     0.0000    0.0000    0.0000    0.0000   -0.1042    0.0000
 AT.   2 LI X     0.0853    0.0000    0.0951    0.0000    0.0000   -0.1042
            Y     0.0000    0.0853    0.0000    0.0951    0.0000    0.0000
            Z     0.0000    0.0000    0.0000    0.0000   -0.1042    0.0000
 AT.   3 LI X    -0.0853    0.0000   -0.0951    0.0000    0.0000   -0.1042
            Y     0.0000   -0.0853    0.0000   -0.0951    0.0000    0.0000
            Z     0.0000    0.0000    0.0000    0.0000   -0.1042    0.0000
 AT.   4 LI X    -0.0853    0.0000    0.0951    0.0000    0.0000   -0.1042
            Y     0.0000   -0.0853    0.0000    0.0951    0.0000    0.0000
            Z     0.0000    0.0000    0.0000    0.0000   -0.1042    0.0000
 AT.   5 O  X    -0.0919    0.0000   -0.0914    0.0000    0.0000   -0.1042
            Y     0.0000   -0.0919    0.0000   -0.0914    0.0000    0.0000
            Z     0.0000    0.0000    0.0000    0.0000   -0.1042    0.0000
 AT.   6 O  X    -0.0919    0.0000    0.0914    0.0000    0.0000   -0.1042
            Y     0.0000   -0.0919    0.0000    0.0914    0.0000    0.0000
            Z     0.0000    0.0000    0.0000    0.0000   -0.1042    0.0000
 AT.   7 O  X     0.0919    0.0000   -0.0914    0.0000    0.0000   -0.1042
            Y     0.0000    0.0919    0.0000   -0.0914    0.0000    0.0000
            Z     0.0000    0.0000    0.0000    0.0000   -0.1042    0.0000
 AT.   8 O  X     0.0919    0.0000    0.0914    0.0000    0.0000   -0.1042
            Y     0.0000    0.0919    0.0000    0.0914    0.0000    0.0000
            Z     0.0000    0.0000    0.0000    0.0000   -0.1042    0.0000

 FREQ(CM**-1)      0.00     73.18    139.27    139.27    260.29    360.53

 AT.   1 LI X     0.0000    0.0000    0.0817    0.0000    0.0000    0.0000
            Y    -0.1042    0.0000    0.0000    0.0817    0.0000    0.0000
            Z     0.0000   -0.2019    0.0000    0.0000   -0.0899    0.0779
 AT.   2 LI X     0.0000    0.0000   -0.0817    0.0000    0.0000    0.0000
            Y    -0.1042    0.0000    0.0000   -0.0817    0.0000    0.0000
            Z     0.0000   -0.2019    0.0000    0.0000    0.0899   -0.0779
 AT.   3 LI X     0.0000    0.0000   -0.0817    0.0000    0.0000    0.0000
            Y    -0.1042    0.0000    0.0000   -0.0817    0.0000    0.0000
            Z     0.0000   -0.2019    0.0000    0.0000    0.0899   -0.0779
 AT.   4 LI X     0.0000    0.0000    0.0817    0.0000    0.0000    0.0000
            Y    -0.1042    0.0000    0.0000    0.0817    0.0000    0.0000
            Z     0.0000   -0.2019    0.0000    0.0000   -0.0899    0.0779
 AT.   5 O  X     0.0000    0.0000   -0.1029    0.0000    0.0000    0.0000
            Y    -0.1042    0.0000    0.0000   -0.1029    0.0000    0.0000
            Z     0.0000    0.0885    0.0000    0.0000    0.0607    0.0506
 AT.   6 O  X     0.0000    0.0000    0.1029    0.0000    0.0000    0.0000
            Y    -0.1042    0.0000    0.0000    0.1029    0.0000    0.0000
            Z     0.0000    0.0885    0.0000    0.0000   -0.0607   -0.0506
 AT.   7 O  X     0.0000    0.0000    0.1029    0.0000    0.0000    0.0000
            Y    -0.1042    0.0000    0.0000    0.1029    0.0000    0.0000
            Z     0.0000    0.0885    0.0000    0.0000   -0.0607   -0.0506
 AT.   8 O  X     0.0000    0.0000   -0.1029    0.0000    0.0000    0.0000
            Y    -0.1042    0.0000    0.0000   -0.1029    0.0000    0.0000
            Z     0.0000    0.0885    0.0000    0.0000    0.0607    0.0506

 FREQ(CM**-1)    443.39    443.39    483.17    483.17    504.03    504.03

 AT.   1 LI X    -0.0810    0.0000   -0.0786    0.0000   -0.0786    0.0000
            Y     0.0000   -0.0810    0.0000   -0.0786    0.0000   -0.0786
            Z     0.0000    0.0000    0.0000    0.0000    0.0000    0.0000
 AT.   2 LI X     0.0810    0.0000   -0.0786    0.0000   -0.0786    0.0000
            Y     0.0000    0.0810    0.0000   -0.0786    0.0000   -0.0786
            Z     0.0000    0.0000    0.0000    0.0000    0.0000    0.0000
 AT.   3 LI X    -0.0810    0.0000   -0.0786    0.0000    0.0786    0.0000
            Y     0.0000   -0.0810    0.0000   -0.0786    0.0000    0.0786
            Z     0.0000    0.0000    0.0000    0.0000    0.0000    0.0000
 AT.   4 LI X     0.0810    0.0000   -0.0786    0.0000    0.0786    0.0000
            Y     0.0000    0.0810    0.0000   -0.0786    0.0000    0.0786
            Z     0.0000    0.0000    0.0000    0.0000    0.0000    0.0000
 AT.   5 O  X     0.0370    0.0000    0.0345    0.0000   -0.0320    0.0000
            Y     0.0000    0.0370    0.0000    0.0345    0.0000   -0.0320
            Z     0.0000    0.0000    0.0000    0.0000    0.0000    0.0000
 AT.   6 O  X    -0.0370    0.0000    0.0345    0.0000   -0.0320    0.0000
            Y     0.0000   -0.0370    0.0000    0.0345    0.0000   -0.0320
            Z     0.0000    0.0000    0.0000    0.0000    0.0000    0.0000
 AT.   7 O  X     0.0370    0.0000    0.0345    0.0000    0.0320    0.0000
            Y     0.0000    0.0370    0.0000    0.0345    0.0000    0.0320
            Z     0.0000    0.0000    0.0000    0.0000    0.0000    0.0000
 AT.   8 O  X    -0.0370    0.0000    0.0345    0.0000    0.0320    0.0000
            Y     0.0000   -0.0370    0.0000    0.0345    0.0000    0.0320
            Z     0.0000    0.0000    0.0000    0.0000    0.0000    0.0000

 FREQ(CM**-1)    514.27    514.27    520.10    583.97    948.09    954.33

 AT.   1 LI X    -0.0808    0.0000    0.0000    0.0000    0.0000    0.0000
            Y     0.0000   -0.0808    0.0000    0.0000    0.0000    0.0000
            Z     0.0000    0.0000   -0.0906    0.0848    0.0096   -0.0052
 AT.   2 LI X     0.0808    0.0000    0.0000    0.0000    0.0000    0.0000
            Y     0.0000    0.0808    0.0000    0.0000    0.0000    0.0000
            Z     0.0000    0.0000   -0.0906   -0.0848   -0.0096   -0.0052
 AT.   3 LI X     0.0808    0.0000    0.0000    0.0000    0.0000    0.0000
            Y     0.0000    0.0808    0.0000    0.0000    0.0000    0.0000
            Z     0.0000    0.0000    0.0906    0.0848    0.0096    0.0052
 AT.   4 LI X    -0.0808    0.0000    0.0000    0.0000    0.0000    0.0000
            Y     0.0000   -0.0808    0.0000    0.0000    0.0000    0.0000
            Z     0.0000    0.0000    0.0906   -0.0848   -0.0096    0.0052
 AT.   5 O  X    -0.0282    0.0000    0.0000    0.0000    0.0000    0.0000
            Y     0.0000   -0.0282    0.0000    0.0000    0.0000    0.0000
            Z     0.0000    0.0000   -0.0047    0.0081   -0.0441    0.0443
 AT.   6 O  X     0.0282    0.0000    0.0000    0.0000    0.0000    0.0000
            Y     0.0000    0.0282    0.0000    0.0000    0.0000    0.0000
            Z     0.0000    0.0000   -0.0047   -0.0081    0.0441    0.0443
 AT.   7 O  X     0.0282    0.0000    0.0000    0.0000    0.0000    0.0000
            Y     0.0000    0.0282    0.0000    0.0000    0.0000    0.0000
            Z     0.0000    0.0000    0.0047    0.0081   -0.0441   -0.0443
 AT.   8 O  X    -0.0282    0.0000    0.0000    0.0000    0.0000    0.0000
            Y     0.0000   -0.0282    0.0000    0.0000    0.0000    0.0000
            Z     0.0000    0.0000    0.0047   -0.0081    0.0441   -0.0443

 ESTIMATED NUMBER OF IMAGINARY FREQS    4


 *******************************************************************************

 VIBRATIONAL TEMPERATURES (K) [MODE NUMBER;IRREP]

 TO MODES
   105.3 [   8;A2u]   200.4 [   9;E2g]   200.4 [  10;E2g]   374.5 [  11;B1g]
   518.7 [  12;B1g]   637.9 [  13;E2u]   637.9 [  14;E2u]   695.2 [  15;E1u]
   695.2 [  16;E1u]   725.2 [  17;E1g]   725.2 [  18;E1g]   739.9 [  19;E2g]
   739.9 [  20;E2g]   748.3 [  21;A1g]   840.2 [  22;B2u]  1364.1 [  23;B2u]
  1373.1 [  24;A1g]

 *******************************************************************************

 HARMONIC VIBRATIONAL CONTRIBUTIONS TO THERMODYNAMIC FUNCTIONS AT GIVEN
 TEMPERATURE AND PRESSURE:

 (EL = ELECTRONIC ENERGY
  E0 = ZERO-POINT ENERGY
  ET = THERMAL CONTRIBUTION TO THE VIBRATIONAL ENERGY
  PV = PRESSURE * VOLUME
  TS = TEMPERATURE * ENTROPY)

                          AU/CELL             EV/CELL                 KJ/MOL
 EL            :    -330.901269091023   -9004.281300782393     -868781.15956501
 E0            :       0.017926306500       0.487799599116          47.06551108


 *******************************************************************************

 THERMODYNAMIC FUNCTIONS WITH VIBRATIONAL CONTRIBUTIONS

 AT (T =  298.15 K, P =   0.10132500E+00 MPA):

                          AU/CELL             EV/CELL                 KJ/MOL
 ET            :       0.005283677636       0.143776177910          13.87229368
 PV            :       0.000001740458       0.000047360280           0.00456957
 TS            :       0.009201963521       0.250398157399          24.15975182
 ET+PV-TS      :      -0.003916545427      -0.106574619209         -10.28288857
 EL+E0+ET+PV-TS:    -330.887259329950   -9003.900075802489     -868744.37694250

 OTHER THERMODYNAMIC FUNCTIONS:

                      mHARTREE/(CELL*K)     mEV/(CELL*K)              J/(MOL*K)
 ENTROPY       :       0.030863536880       0.839839535131          81.03220466
 HEAT CAPACITY :       0.035820062054       0.974713441970          94.04555967

 *******************************************************************************
 TTTTTTTTTTTTTTTTTTTTTTTTTTTTTT END         TELAPSE     3052.25 TCPU     3023.33
 EEEEEEEEEE TERMINATION  DATE 25 07 2023 TIME 17:56:10.3
