         256 PROCESSORS WORKING

         
 *******************************************************************************
 *                                                                             *
 *                               CRYSTAL23                                     *
 *                      public : 1.0.1 - October 2022                          *
 *                       HTTP://WWW.CRYSTAL.UNITO.IT                           *
 *                                                                             *
 *                              MAIN AUTHORS                                   *
 *                                                                             *
 *  R. DOVESI(1,11), V.R. SAUNDERS(2), C. ROETTI(1,11), R. ORLANDO(1,11),      *
 *  C.M. ZICOVICH-WILSON(1,3), F. PASCALE(4), B. CIVALLERI(1,11),              *
 *  K. DOLL(5), N.M. HARRISON(6), I.J. BUSH(7), Ph. D'ARCO(8),                 *
 *  M. LLUNELL(9), M. CAUSA'(10), Y. NOEL(8), L. MASCHIO(1,11), A. ERBA(1,11)  *
 *  M. RE'RAT(14), S. CASASSA(1,11), B.G. SEARLE(2), J.K. DESMARAIS(1)         *
 *                                                                             *
 *        CONTRIBUTIONS TO THE CODE HAVE ALSO BEEN GIVEN BY                    *
 *                                                                             *
 *  M. FERRABONE(1,11), M. DE LA PIERRE(1,11), M. FERRERO(1,11),               *
 *  J. BAIMA(1,11), E. ALBANESE(1,11), M.F. PEINTINGER(12), R. BAST(13),       *
 *  B. KIRTMAN(15), V. LACIVITA(1,11), R. DEMICHELIS(1,16)                     *
 *  G. BRANDEBURG(17), S. SALUSTRO(1,11), G. SANSONE(1,11)                     *
 *  M.T. RUGGIERO(18), L.E. DAGA(1), L. DONA'(1), A. COSSARD(1)                *
 *                                                                             *
 * (1) THEORETICAL CHEMISTRY GROUP - UNIVERSITA' DI TORINO - TORINO (ITALY)    *
 * (2) SCIENTIFIC COMPUTING DEPARTMENT - STFC DARESBURY (UK)                   *
 * (3) UNIVERSIDAD AUTONOMA DEL ESTADO DE MORELOS - CUERNAVACA (MEXICO)        *
 * (4) UNIVERSITE' DE LORRAINE - NANCY (FRANCE)                                *
 * (5) UNIVERSITAET STUTTGART- STUTTGART (GERMANY)                             *
 * (6) IMPERIAL COLLEGE - LONDON (UK)                                          *
 * (7) SCIENTIFIC COMPUTING DEPARTMENT - STFC RAL (UK)                         *
 * (8) UPMC - SORBONNE UNIVERSITES - PARIS (FRANCE)                            *
 * (9) UNIVERSIDAD DE BARCELONA - BARCELONA (SPAIN)                            *
 *(10) UNIVERSITA' DI NAPOLI "FEDERICO II" - NAPOLI (ITALY)                    *
 *(11) NIS - NANOSTRUCTURED INTERFACES AND SURFACES - TORINO (ITALY)           *
 *(12) MPI FUER CHEMISCHE ENERGIEKONVERSION - MUELHEIM AN DER RUHR (GERMANY)   *
 *(13) UNIVERSITY OF TROMSO - TROMSO (NORWAY)                                  *
 *(14) UNIVERSITE' DE PAU ET DES PAYS DE L'ADOUR - PAU (FRANCE)                *
 *(15) UNIVERSITY OF CALIFORNIA SANTA BARBARA - SANTA BARBARA (USA)            *
 *(16) CURTIN UNIVERSITY - PERTH (AUSTRALIA)                                   *
 *(17) UNIVERSITY COLLEGE LONDON - LONDON (UK)                                 *
 *(18) UNIVERSITY OF VERMONT - BURLINGTON (USA)                                *
 *                                                                             *
 *******************************************************************************
 EEEEEEEEEE STARTING  DATE 25 07 2023 TIME 17:26:10.0
 ICSD_CollCode414242.cif                                                         

 CRYSTAL CALCULATION
 (INPUT ACCORDING TO THE INTERNATIONAL TABLES FOR X-RAY CRYSTALLOGRAPHY)
 CRYSTAL FAMILY                       :  HEXAGONAL   
 CRYSTAL CLASS  (GROTH - 1921)        :  DIHEXAGONAL PYRAMIDAL                

 SPACE GROUP (NONCENTROSYMMETRIC)     :  P 63 M C        

 LATTICE PARAMETERS  (ANGSTROMS AND DEGREES) - CONVENTIONAL CELL
        A           B           C        ALPHA        BETA       GAMMA
     4.51400     4.51400     7.31100    90.00000    90.00000   120.00000


 NUMBER OF IRREDUCIBLE ATOMS IN THE CONVENTIONAL CELL:    2

 INPUT COORDINATES

 ATOM AT. N.              COORDINATES
   1   3     6.666666666670E-01  3.333333333330E-01  5.000000000000E-01
   2 253     6.666666666670E-01  3.333333333330E-01  8.750000000000E-01

 *******************************************************************************

 << INFORMATION >>: FROM NOW ON, ALL COORDINATES REFER TO THE PRIMITIVE CELL

 *******************************************************************************

 LATTICE PARAMETERS  (ANGSTROMS AND DEGREES) - PRIMITIVE CELL
       A          B          C        ALPHA      BETA     GAMMA        VOLUME
    4.51400    4.51400    7.31100    90.00000  90.00000 120.00000    129.012124

 COORDINATES OF THE EQUIVALENT ATOMS (FRACTIONAL UNITS)

 N. ATOM EQUIV AT. N.          X                  Y                  Z

   1   1   1    3 LI   -3.33333333333E-01  3.33333333333E-01 -5.00000000000E-01
   2   1   2    3 LI    3.33333333333E-01 -3.33333333333E-01  0.00000000000E+00

   3   2   1  253 I    -3.33333333333E-01  3.33333333333E-01 -1.25000000000E-01
   4   2   2  253 I     3.33333333333E-01 -3.33333333333E-01  3.75000000000E-01

 NUMBER OF SYMMETRY OPERATORS         :   12
 *******************************************************************************
 * GEOMETRY EDITING - INPUT COORDINATES ARE GIVEN IN ANGSTROM         
 *******************************************************************************

 GEOMETRY NOW FULLY CONSISTENT WITH THE GROUP

 FRQFRQFRQFRQFRQFRQFRQFRQFRQFRQFRQFRQFRQFRQFRQFRQFRQFRQFRQFRQFRQFRQFRQFRQFRQFRQ

                       FREQUENCY CALCULATION

 OPTIMIZATION PERFORMED BEFORE FREQUENCIES CALCULATION
 *******************************************************************************
 INFORMATION **** NEW DEFAULT **** FINALRUN 4 FOR GEOMETRY OPTIMIZATIONS
 INFORMATION **** NEW DEFAULT **** OPTGEOM OPTIMIZES ATOMIC COORDINATES ONLY
 INFORMATION **** NEW DEFAULT **** TOL. ON ATOMIC DISP TO REDEFINE REF. GEOMETRY: 0.8 Angs
 INFORMATION **** NEW DEFAULT **** N POINTS TO REDEFINE REF. GEOMETRY: N OF OPT DEGS OF FREEDOM
 INFORMATION **** NEW DEFAULT **** TOL. ON ENERGY TO REDEFINE REF. GEOMETRY: 10**-3*(5*N. ATOMS)
 INFORMATION **** FULLOPTG **** FULL OPTIMIZATION (ATOMS AND CELL PARAMETERS)

 IMPORTANT INFORMATION:
 THE COORDINATE SYSTEM ADOPTED IN THE OPTIMIZATION IS NOT IN
 GENERAL HOMOGENEOUS UNITS. FOR THIS REASON THE GRADIENT AND 
 HESSIAN MATRIX IN TERMS OF THIS SYSTEM ARE GIVEN WITHOUT
 UNITS. FOR MORE DETAILS SEE THE MANUAL.

 *******************************************************************************
 COMBINED CELL/ATOM OPTIMIZATION CONTROL

 INITIAL TRUST RADIUS         0.50000 MAXIMUM TRUST RADIUS               0.50000
 MAXIMUM GRADIENT COMPONENT   0.00005 MAXIMUM DISPLACEMENT COMPONENT     0.00018
 R.M.S. OF GRADIENT COMPONENT 0.00003 R.M.S. OF DISPLACEMENT COMPONENTS  0.00012
 THRESHOLD ON ENERGY CHANGE 0.100E-06 EXTRAPOLATING POLYNOMIAL ORDER           2
 MAXIMUM ALLOWED NUMBER OF STEPS   -1 SORTING OF ENERGY POINTS:               NO
 ANALYTICAL  GRADIENT                 HESSIAN UPDATING                      BFGS
 STEP SIZE NUMERICAL GRADIENT 0.00100
 INITIAL HESSIAN MATRIX: SCHLEGEL MODEL 2
 *******************************************************************************

 INFORMATION **** INPFREQ **** IR INTENSITIES EVALUATED THROUGH CPHF APPROACH
 INFORMATION **** INPFREQ **** NEW DEFAULT - IMPOSING ECKART CONDITIONS TO THE HESSIAN

 GCALCO - MAX INDICES DIRECT LATTICE VECTOR    18    18     9
 NO.OF VECTORS CREATED 6999 STARS  371 RMAX   112.84425 BOHR

 GEOMETRY FOR WAVE FUNCTION - DIMENSIONALITY OF THE SYSTEM    3
 (NON PERIODIC DIRECTION: LATTICE PARAMETER FORMALLY SET TO 500)
 *******************************************************************************
 LATTICE PARAMETERS (ANGSTROMS AND DEGREES) - BOHR = 0.5291772083 ANGSTROM
 PRIMITIVE CELL - CENTRING CODE 1/0 VOLUME=   129.012124 - DENSITY  3.447 g/cm^3
         A              B              C           ALPHA      BETA       GAMMA 
     4.51400000     4.51400000     7.31100000    90.000000  90.000000 120.000000
 *******************************************************************************
 ATOMS IN THE ASYMMETRIC UNIT    2 - ATOMS IN THE UNIT CELL:    4
     ATOM                 X/A                 Y/B                 Z/C    
 *******************************************************************************
      1 T   3 LI   -3.333333333333E-01  3.333333333333E-01  5.000000000000E-01
      2 F   3 LI    3.333333333333E-01 -3.333333333333E-01  1.162537596091E-16
      3 T 253 I    -3.333333333333E-01  3.333333333333E-01 -1.250000000000E-01
      4 F 253 I     3.333333333333E-01 -3.333333333333E-01  3.750000000000E-01

 T = ATOM BELONGING TO THE ASYMMETRIC UNIT

 ****   12 SYMMOPS - TRANSLATORS IN FRACTIONAL UNITS
 **** MATRICES AND TRANSLATORS IN THE CRYSTALLOGRAPHIC REFERENCE FRAME
   V INV                    ROTATION MATRICES                   TRANSLATORS
   1   1  1.00  0.00  0.00  0.00  1.00  0.00  0.00  0.00  1.00  0.00  0.00  0.00
   2   2 -1.00  0.00  0.00  0.00 -1.00  0.00  0.00  0.00  1.00  0.00  0.00  0.50
   3   4  0.00 -1.00  0.00  1.00 -1.00  0.00  0.00  0.00  1.00  0.00  0.00  0.00
   4   3 -1.00  1.00  0.00 -1.00  0.00  0.00  0.00  0.00  1.00  0.00  0.00  0.00
   5   6  1.00 -1.00  0.00  1.00 -0.00  0.00  0.00  0.00  1.00  0.00  0.00  0.50
   6   5 -0.00  1.00  0.00 -1.00  1.00  0.00  0.00  0.00  1.00  0.00  0.00  0.50
   7   7 -1.00  1.00  0.00 -0.00  1.00  0.00  0.00  0.00  1.00  0.00  0.00  0.00
   8   8  1.00  0.00  0.00  1.00 -1.00  0.00  0.00  0.00  1.00  0.00  0.00  0.00
   9   9  0.00 -1.00  0.00 -1.00 -0.00  0.00  0.00  0.00  1.00  0.00  0.00  0.00
  10  10 -0.00  1.00  0.00  1.00  0.00  0.00  0.00  0.00  1.00  0.00  0.00  0.50
  11  11 -1.00  0.00  0.00 -1.00  1.00  0.00  0.00  0.00  1.00  0.00  0.00  0.50
  12  12  1.00 -1.00  0.00  0.00 -1.00  0.00  0.00  0.00  1.00  0.00  0.00  0.50

 DIRECT LATTICE VECTORS CARTESIAN COMPONENTS (ANGSTROM)
          X                    Y                    Z
   0.390923867268E+01  -0.225700000000E+01   0.000000000000E+00
   0.000000000000E+00   0.451400000000E+01   0.000000000000E+00
   0.000000000000E+00   0.000000000000E+00   0.731100000000E+01


 CARTESIAN COORDINATES - PRIMITIVE CELL
 *******************************************************************************
 *      ATOM          X(ANGSTROM)         Y(ANGSTROM)         Z(ANGSTROM)
 *******************************************************************************
    1     3 LI   -1.303079557561E+00 -2.257000000000E+00  3.655500000000E+00
    2     3 LI   -2.606159115122E+00  6.795033053268E-17  8.499312365018E-16
    3   253 I    -1.303079557561E+00 -2.257000000000E+00 -9.138750000000E-01
    4   253 I    -2.606159115122E+00  6.795033053268E-17  2.741625000000E+00

 *******************************************************************************
 *** PSEUDOPOTENTIAL INFORMATION ***
 *******************************************************************************

 ATOMIC NUMBER  53, NUCLEAR CHARGE 25.000, GIVEN IN INPUT       PSEUDOPOTENTIAL
   TYPE       EXPONENT      COEFF.    N      EXPONENT      COEFF.    N
  P0 TMS    40.0333760   49.9896490   0    17.3005760  281.0065560   0
             8.8517200   61.4167390   0
  P1 TMS    15.7201410   67.4162390   0    15.2082220  134.8076960   0
             8.2941860   14.5665480   0     7.7539490   28.9684220   0
  P2 TMS    13.8177510   35.5387560   0    13.5878050   53.3397590   0
             6.9476300    9.7164660   0     6.9600990   14.9775000   0
  P3 TMS    18.5229500  -20.1766180   0    18.2510350  -26.0880770   0
             7.5579010   -0.2204340   0     7.5974040   -0.2216460   0

 *******************************************************************************
 LOCAL ATOMIC FUNCTIONS BASIS SET
 *******************************************************************************
   ATOM   X(AU)   Y(AU)   Z(AU)  N. TYPE  EXPONENT  S COEF   P COEF   D/F/G COEF
 *******************************************************************************
   1 LI  -2.462  -4.265   6.908
                                  1 S  
                                         6.269E+03 2.054E-04 0.000E+00 0.000E+00
                                         9.403E+02 1.592E-03 0.000E+00 0.000E+00
                                         2.142E+02 8.287E-03 0.000E+00 0.000E+00
                                         6.076E+01 3.386E-02 0.000E+00 0.000E+00
                                         1.992E+01 1.110E-01 0.000E+00 0.000E+00
                                         7.317E+00 2.745E-01 0.000E+00 0.000E+00
                                  2 S  
                                         2.972E+00 2.379E-01 0.000E+00 0.000E+00
                                         1.264E+00 3.077E-01 0.000E+00 0.000E+00
                                  3 S  
                                         5.026E-01 1.000E+00 0.000E+00 0.000E+00
                                  4 S  
                                         1.201E-01 1.000E+00 0.000E+00 0.000E+00
                           5-     7 P  
                                         1.320E-01 0.000E+00 1.000E+00 0.000E+00
   2 LI  -4.925   0.000   0.000
   3 I   -2.462  -4.265  -1.727
                                 15 S  
                                         5.900E+03 2.419E-04 0.000E+00 0.000E+00
                                         8.985E+02 1.547E-03 0.000E+00 0.000E+00
                                         2.004E+02 4.284E-03 0.000E+00 0.000E+00
                                         3.142E+01-3.942E-02 0.000E+00 0.000E+00
                                         1.565E+01 9.609E-01 0.000E+00 0.000E+00
                                 16 S  
                                         1.182E+01 7.596E-01 0.000E+00 0.000E+00
                                         6.461E+00 4.250E-01 0.000E+00 0.000E+00
                                 17 S  
                                         1.793E+00 1.000E+00 0.000E+00 0.000E+00
                                 18 S  
                                         2.229E-01 1.000E+00 0.000E+00 0.000E+00
                          19-    21 P  
                                         1.973E+02 0.000E+00 7.395E-04 0.000E+00
                                         2.006E+01 0.000E+00 6.617E-02 0.000E+00
                                         9.763E+00 0.000E+00-2.855E-01 0.000E+00
                          22-    24 P  
                                         1.298E+01 0.000E+00-4.910E-02 0.000E+00
                                         3.620E+00 0.000E+00 3.891E-01 0.000E+00
                                         2.023E+00 0.000E+00 6.561E-01 0.000E+00
                                         1.037E+00 0.000E+00 3.180E-01 0.000E+00
                          25-    27 P  
                                         4.758E-01 0.000E+00 1.000E+00 0.000E+00
                          28-    30 P  
                                         1.500E-01 0.000E+00 1.000E+00 0.000E+00
                          31-    35 D  
                                         1.191E+02 0.000E+00 0.000E+00 8.260E-04
                                         3.340E+01 0.000E+00 0.000E+00 6.838E-03
                                         1.781E+01 0.000E+00 0.000E+00-1.031E-02
                                         4.899E+00 0.000E+00 0.000E+00 2.267E-01
                                         2.452E+00 0.000E+00 0.000E+00 4.418E-01
                                         1.182E+00 0.000E+00 0.000E+00 3.678E-01
                          36-    40 D  
                                         2.537E+00 0.000E+00 0.000E+00 1.000E+00
                          41-    45 D  
                                         6.887E-01 0.000E+00 0.000E+00 1.000E+00
                          46-    50 D  
                                         2.068E-01 0.000E+00 0.000E+00 1.000E+00
   4 I   -4.925   0.000   5.181
 INFORMATION **** SET_MPP **** PCRYSTAL CALCULATION
 INFORMATION **** READM2 **** NEW DEFAULT: FOCK/KS MATRIX MIXING SET TO 30 %
 INFORMATION **** READM2 **** NEW DEFAULT: FULL DIRECT SCF MODE
 INFORMATION **** READM2 **** NEW DEFAULT: COULOMB BIPOLAR BUFFER SET TO 32 Mb
 INFORMATION **** READM2 **** NEW DEFAULT: EXCHANGE BIPOLAR BUFFER SET TO 32 Mb

 *******************************************************************************
 NEW DEFAULT: DFT INTEGRATION GRID INCREASED TO XLGRID
 NEW DEFAULT: DIIS ACCELERATOR ACTIVE
 USE KEYWORD NODIIS TO TURN IT OFF
 *******************************************************************************

 INFORMATION **** RDDFTP **** MAX N. OF POINTS ALLOWED IN A BATCH FOR NUMERICAL INTEGRATION         200
 INFORMATION **** TOLINTEG **** COULOMB AND EXCHANGE SERIES TOLERANCES MODIFIED
 INFORMATION **** TOLDEE **** SCF TOL ON TOTAL ENERGY SET TO          11
 INFORMATION **** EXCHSIZE **** EXCHANGE BIPOLAR BUFFER SIZE SET TO    12012489
 INFORMATION **** MAXCYCLE **** MAX NUMBER OF SCF CYCLES SET TO         150
 *******************************************************************************
 N. OF ATOMS PER CELL         4  COULOMB OVERLAP TOL         (T1) 10**   -7
 NUMBER OF SHELLS            34  COULOMB PENETRATION TOL     (T2) 10**   -7
 NUMBER OF AO                86  EXCHANGE OVERLAP TOL        (T3) 10**   -7
 N. OF ELECTRONS PER CELL    56  EXCHANGE PSEUDO OVP (F(G))  (T4) 10**   -9
 CORE ELECTRONS PER CELL      4  EXCHANGE PSEUDO OVP (P(G))  (T5) 10**  -30
 N. OF SYMMETRY OPERATORS    12  POLE ORDER IN MONO ZONE                  4
 *******************************************************************************
 TYPE OF CALCULATION :  RESTRICTED CLOSED SHELL
 KOHN-SHAM HAMILTONIAN

 (EXCHANGE)[CORRELATION] FUNCTIONAL:(PERDEW-BURKE-ERNZERHOF)[PERDEW-BURKE-ERNZERHOF]


 HYBRID EXCHANGE - PERCENTAGE OF FOCK EXCHANGE    25.0000
 CORE  PSEUDO POTENTIAL         TOL. ON PSEUDO              (TP) 10**- 6

 CAPPA:IS1  8;IS2  8;IS3  8; K PTS MONK NET  50; SYMMOPS:K SPACE  24;G SPACE  12

 *******************************************************************************
 MAX NUMBER OF SCF CYCLES     150  CONVERGENCE ON DELTAP        10**-21
 WEIGHT OF F(I) IN F(I+1)      30% CONVERGENCE ON ENERGY        10**-11
 SHRINK. FACT.(MONKH.)    8  8  8  NUMBER OF K POINTS IN THE IBZ     50
 SHRINKING FACTOR(GILAT NET)    8  NUMBER OF K POINTS(GILAT NET)     50
 *******************************************************************************
 *** K POINTS COORDINATES (OBLIQUE COORDINATES IN UNITS OF IS =  8)
   1-R(  0  0  0)   2-C(  1  0  0)   3-C(  2  0  0)   4-C(  3  0  0)
   5-R(  4  0  0)   6-C(  1  1  0)   7-C(  2  1  0)   8-C(  3  1  0)
   9-C(  2  2  0)  10-C(  3  2  0)  11-C(  0  0  1)  12-C(  1  0  1)
  13-C(  2  0  1)  14-C(  3  0  1)  15-C(  4  0  1)  16-C(  1  1  1)
  17-C(  2  1  1)  18-C(  3  1  1)  19-C(  2  2  1)  20-C(  3  2  1)
  21-C(  0  0  2)  22-C(  1  0  2)  23-C(  2  0  2)  24-C(  3  0  2)
  25-C(  4  0  2)  26-C(  1  1  2)  27-C(  2  1  2)  28-C(  3  1  2)
  29-C(  2  2  2)  30-C(  3  2  2)  31-C(  0  0  3)  32-C(  1  0  3)
  33-C(  2  0  3)  34-C(  3  0  3)  35-C(  4  0  3)  36-C(  1  1  3)
  37-C(  2  1  3)  38-C(  3  1  3)  39-C(  2  2  3)  40-C(  3  2  3)
  41-R(  0  0  4)  42-C(  1  0  4)  43-C(  2  0  4)  44-C(  3  0  4)
  45-R(  4  0  4)  46-C(  1  1  4)  47-C(  2  1  4)  48-C(  3  1  4)
  49-C(  2  2  4)  50-C(  3  2  4)

 DIRECT LATTICE VECTORS COMPON. (A.U.)     RECIP. LATTICE VECTORS COMPON. (A.U.) 
        X            Y            Z              X            Y            Z
    7.3873905   -4.2651119    0.0000000      0.8505284    0.0000000    0.0000000
    0.0000000    8.5302238    0.0000000      0.4252642    0.7365792   -0.0000000
    0.0000000    0.0000000   13.8157878     -0.0000000    0.0000000    0.4547830

 DISK SPACE FOR EIGENVECTORS (FTN 10)      710016 REALS

 SYMMETRY ADAPTION OF THE BLOCH FUNCTIONS ENABLED
 TTTTTTTTTTTTTTTTTTTTTTTTTTTTTT gordsh1     TELAPSE        4.53 TCPU        2.18

 MATRIX SIZE: P(G)  262986, F(G)   21506, P(G) IRR   17801, F(G) IRR    3826
 MAX G-VECTOR INDEX FOR 1- AND 2-ELECTRON INTEGRALS 339

 TTTTTTTTTTTTTTTTTTTTTTTTTTTTTT INPUT       TELAPSE        4.53 TCPU        2.18

 NEIGHBORS OF THE NON-EQUIVALENT ATOMS

 N = NUMBER OF NEIGHBORS AT DISTANCE R
    ATOM  N     R/ANG      R/AU   NEIGHBORS (ATOM LABELS AND CELL INDICES)
   1 LI   1     2.7416     5.1809    3 I    0 0 1
   1 LI   3     2.7617     5.2189    4 I    0 0 0    4 I    1 0 0    4 I    0-1 0
   1 LI   6     4.4894     8.4837    2 LI   0 0 0    2 LI   1 0 0    2 LI   0-1 0
                                     2 LI   0 0 1    2 LI   1 0 1    2 LI   0-1 1
   1 LI   6     4.5140     8.5302    1 LI  -1-1 0    1 LI   1 1 0    1 LI  -1 0 0
                                     1 LI   1 0 0    1 LI   0-1 0    1 LI   0 1 0
   1 LI   1     4.5694     8.6349    3 I    0 0 0
   1 LI   6     5.2814     9.9803    3 I    1 1 1    3 I   -1-1 1    3 I    1 0 1
                                     3 I   -1 0 1    3 I    0 1 1    3 I    0-1 1

   3 I    1     2.7416     5.1809    1 LI   0 0-1
   3 I    3     2.7617     5.2189    2 LI   0 0 0    2 LI   1 0 0    2 LI   0-1 0
   3 I    6     4.4894     8.4837    4 I    0 0 0    4 I    1 0 0    4 I    0-1 0
                                     4 I    0 0-1    4 I    1 0-1    4 I    0-1-1
   3 I    6     4.5140     8.5302    3 I   -1-1 0    3 I    1 1 0    3 I   -1 0 0
                                     3 I    1 0 0    3 I    0-1 0    3 I    0 1 0
   3 I    1     4.5694     8.6349    1 LI   0 0 0
   3 I    6     5.2814     9.9803    1 LI  -1-1-1    1 LI   1 1-1    1 LI  -1 0-1
                                     1 LI   1 0-1    1 LI   0-1-1    1 LI   0 1-1


 SYMMETRY ALLOWED ELASTIC DISTORTION 1
  0.5773503  0.0000000  0.0000000
  0.0000000  0.5773503  0.0000000
  0.0000000  0.0000000  0.5773503

 SYMMETRY ALLOWED ELASTIC DISTORTION 2
  0.4082483 -0.0000000  0.0000000
 -0.0000000  0.4082483  0.0000000
  0.0000000  0.0000000 -0.8164966

 SYMMETRY ALLOWED INTERNAL DEGREE(S) OF FREEDOM:   1
 TTTTTTTTTTTTTTTTTTTTTTTTTTTTTT SYMM        TELAPSE        4.56 TCPU        2.21
 TTTTTTTTTTTTTTTTTTTTTTTTTTTTTT INT_SCREEN  TELAPSE        4.57 TCPU        2.21

 *******************************************************************************
 *                             OPTIMIZATION STARTS                             *
 *******************************************************************************
 RECLASIFICATION OF INDICES FOR INTEGRAL CALC ACCORDING TO DIFFERENT CRITERIA:
           FIXDELTE                  FIXDELTX              FIXDELTN
          0.10000000E-01           0.80000000                 10
 *******************************************************************************

 *******************************************************************************
 COORDINATE AND CELL OPTIMIZATION - POINT    1

 DFT PARAMETERS

     ATOM       ELECTRONS   NET CHARGE   R(ANGSTROM)
   1   3  LI      3.0000      0.0000     1.57000000
   3 253  I      25.0000      0.0000     1.33000000

 SIZE OF GRID=      19104
 TTTTTTTTTTTTTTTTTTTTTTTTTTTTTT MAKE_GRID2  TELAPSE        5.58 TCPU        3.22
 BECKE WEIGHT FUNCTION
 RADSAFE =     2.00
 TOLERANCES - DENSITY:10**- 6; POTENTIAL:10**- 9; GRID WGT:10**-14

 RADIAL INTEGRATION  - INTERVALS (POINTS,UPPER LIMIT):            1( 99,  4.0*R)

 ANGULAR INTEGRATION - INTERVALS (ACCURACY LEVEL [N. POINTS] UPPER LIMIT):
  1(  6[ 146]   0.2)  2( 11[ 302]   0.5)  3( 14[ 590]   0.9)  4( 18[1454]   3.5)
  5( 14[ 590]9999.0)
 TTTTTTTTTTTTTTTTTTTTTTTTTTTTTT INT_CALC    TELAPSE        5.60 TCPU        3.24

 *******************************************************************************
 ICSD_CollCode414242.cif                                                         
 CRYSTAL - SCF - TYPE OF CALCULATION :  RESTRICTED CLOSED SHELL
 *******************************************************************************

 CAPPA:IS1  8;IS2  8;IS3  8; K PTS MONK NET  50; SYMMOPS:K SPACE  24;G SPACE  12

 TTTTTTTTTTTTTTTTTTTTTTTTTTTTTT SDIK        TELAPSE        5.61 TCPU        3.24

 AAAAAAAAAAAAAAAAAAAAAAAAAAAAAAAAAAAAAAAAAAAAAAAAAAAAAAAAAAAAAAAAAAAAAAAAAAAAAAA
         ATOMIC WAVEFUNCTION(S)


 NUCLEAR CHARGE  3.0  SYMMETRY SPECIES            S
 N. ELECTRONS    3.0  NUMBER OF PRIMITIVE GTOS   10
                      NUMBER OF CONTRACTED GTOS   4
                      NUMBER OF CLOSED SHELLS     1
                      OPEN SHELL OCCUPATION       1

  ZNUC  SCFIT    TOTAL HF ENERGY   KINETIC ENERGY   VIRIAL THEOREM             ACCURACY
   3.0     6    -7.379265796E+00  7.680406116E+00 -1.960791094E+00  2.4E-06

 NUCLEAR CHARGE 25.0  SYMMETRY SPECIES            S    P    D
 N. ELECTRONS   25.0  NUMBER OF PRIMITIVE GTOS    9    9    9
                      NUMBER OF CONTRACTED GTOS   4    4    4
                      NUMBER OF CLOSED SHELLS     2    1    1
                      OPEN SHELL OCCUPATION       0    5    0

  ZNUC  SCFIT    TOTAL HF ENERGY   KINETIC ENERGY   VIRIAL THEOREM             ACCURACY
  25.0    10    -2.945808324E+02  1.112323824E+02 -3.648336986E+00  1.4E-06

 AAAAAAAAAAAAAAAAAAAAAAAAAAAAAAAAAAAAAAAAAAAAAAAAAAAAAAAAAAAAAAAAAAAAAAAAAAAAAAA

 TTTTTTTTTTTTTTTTTTTTTTTTTTTTTT MOQGAD      TELAPSE        5.66 TCPU        3.29
 TTTTTTTTTTTTTTTTTTTTTTTTTTTTTT SHELLXN     TELAPSE        5.89 TCPU        3.53
 TTTTTTTTTTTTTTTTTTTTTTTTTTTTTT MONMO3      TELAPSE        5.91 TCPU        3.54
 NUMERICALLY INTEGRATED DENSITY     56.0000047856
 TTTTTTTTTTTTTTTTTTTTTTTTTTTTTT NUMDFT      TELAPSE        5.94 TCPU        3.57
 CYC   0 ETOT(AU) -6.063275208897E+02 DETOT -6.06E+02 tst  0.00E+00 PX  1.00E+00
 TTTTTTTTTTTTTTTTTTTTTTTTTTTTTT DIIS        TELAPSE        5.94 TCPU        3.57
 TTTTTTTTTTTTTTTTTTTTTTTTTTTTTT FDIK        TELAPSE        5.95 TCPU        3.58
 INSULATING STATE
 TOP OF VALENCE BANDS -    BAND     28; K    1; EIG -2.5763483E-01 AU
 BOTTOM OF VIRTUAL BANDS - BAND     29; K    1; EIG  1.1907372E-02 AU
 DIRECT ENERGY BAND GAP:   7.3346 eV
 TTTTTTTTTTTTTTTTTTTTTTTTTTTTTT PDIG        TELAPSE        5.95 TCPU        3.58
 TTTTTTTTTTTTTTTTTTTTTTTTTTTTTT MOQGAD      TELAPSE        5.95 TCPU        3.58
 TTTTTTTTTTTTTTTTTTTTTTTTTTTTTT SHELLXN     TELAPSE        6.20 TCPU        3.82
 TTTTTTTTTTTTTTTTTTTTTTTTTTTTTT MONMO3      TELAPSE        6.22 TCPU        3.84
 NUMERICALLY INTEGRATED DENSITY     56.0000058711
 TTTTTTTTTTTTTTTTTTTTTTTTTTTTTT NUMDFT      TELAPSE        6.24 TCPU        3.87
 CYC   1 ETOT(AU) -6.066000572040E+02 DETOT -2.73E-01 tst  0.00E+00 PX  1.00E+00
 TTTTTTTTTTTTTTTTTTTTTTTTTTTTTT DIIS        TELAPSE        6.24 TCPU        3.87
 DIIS TEST: 0.74749E-02 AT SCF   CYCLE   1 - MIX   30 %
 TTTTTTTTTTTTTTTTTTTTTTTTTTTTTT FDIK        TELAPSE        6.27 TCPU        3.88
 INSULATING STATE
 TOP OF VALENCE BANDS -    BAND     28; K    1; EIG -2.5890001E-01 AU
 BOTTOM OF VIRTUAL BANDS - BAND     29; K   35; EIG  1.8586141E-02 AU
 INDIRECT ENERGY BAND GAP:   7.5508 eV
 BOTTOM OF VIRTUAL BANDS - BAND     29; K    1; EIG  2.1007036E-02 AU
 TTTTTTTTTTTTTTTTTTTTTTTTTTTTTT PDIG        TELAPSE        6.28 TCPU        3.89
 TTTTTTTTTTTTTTTTTTTTTTTTTTTTTT MOQGAD      TELAPSE        6.28 TCPU        3.89
 TTTTTTTTTTTTTTTTTTTTTTTTTTTTTT SHELLXN     TELAPSE        6.52 TCPU        4.13
 TTTTTTTTTTTTTTTTTTTTTTTTTTTTTT MONMO3      TELAPSE        6.54 TCPU        4.14
 NUMERICALLY INTEGRATED DENSITY     56.0000061739
 TTTTTTTTTTTTTTTTTTTTTTTTTTTTTT NUMDFT      TELAPSE        6.56 TCPU        4.17
 CYC   2 ETOT(AU) -6.066041374181E+02 DETOT -4.08E-03 tst  1.88E-04 PX  4.04E-02
 TTTTTTTTTTTTTTTTTTTTTTTTTTTTTT DIIS        TELAPSE        6.57 TCPU        4.17
 DIIS TEST: 0.15564E-02 AT SCF   CYCLE   2 - DIIS ACTIVE - HISTORY:     2 CYCLES
 TTTTTTTTTTTTTTTTTTTTTTTTTTTTTT FDIK        TELAPSE        6.69 TCPU        4.26
 INSULATING STATE
 TOP OF VALENCE BANDS -    BAND     28; K    1; EIG -2.7107633E-01 AU
 BOTTOM OF VIRTUAL BANDS - BAND     29; K   35; EIG  1.1287367E-02 AU
 INDIRECT ENERGY BAND GAP:   7.6835 eV
 BOTTOM OF VIRTUAL BANDS - BAND     29; K    1; EIG  1.9580081E-02 AU
 TTTTTTTTTTTTTTTTTTTTTTTTTTTTTT PDIG        TELAPSE        6.70 TCPU        4.27
 TTTTTTTTTTTTTTTTTTTTTTTTTTTTTT MOQGAD      TELAPSE        6.70 TCPU        4.27
 TTTTTTTTTTTTTTTTTTTTTTTTTTTTTT SHELLXN     TELAPSE        6.94 TCPU        4.51
 TTTTTTTTTTTTTTTTTTTTTTTTTTTTTT MONMO3      TELAPSE        6.96 TCPU        4.53
 NUMERICALLY INTEGRATED DENSITY     56.0000061678
 TTTTTTTTTTTTTTTTTTTTTTTTTTTTTT NUMDFT      TELAPSE        6.99 TCPU        4.56
 CYC   3 ETOT(AU) -6.066043643585E+02 DETOT -2.27E-04 tst  1.39E-05 PX  6.90E-03
 TTTTTTTTTTTTTTTTTTTTTTTTTTTTTT DIIS        TELAPSE        6.99 TCPU        4.56
 DIIS TEST: 0.21035E-03 AT SCF   CYCLE   3 - DIIS ACTIVE - HISTORY:     3 CYCLES
 TTTTTTTTTTTTTTTTTTTTTTTTTTTTTT FDIK        TELAPSE        7.00 TCPU        4.56
 INSULATING STATE
 TOP OF VALENCE BANDS -    BAND     28; K    1; EIG -2.7179775E-01 AU
 BOTTOM OF VIRTUAL BANDS - BAND     29; K   35; EIG  1.0856245E-02 AU
 INDIRECT ENERGY BAND GAP:   7.6914 eV
 BOTTOM OF VIRTUAL BANDS - BAND     29; K    1; EIG  1.9389383E-02 AU
 TTTTTTTTTTTTTTTTTTTTTTTTTTTTTT PDIG        TELAPSE        7.00 TCPU        4.57
 TTTTTTTTTTTTTTTTTTTTTTTTTTTTTT MOQGAD      TELAPSE        7.00 TCPU        4.57
 TTTTTTTTTTTTTTTTTTTTTTTTTTTTTT SHELLXN     TELAPSE        7.25 TCPU        4.81
 TTTTTTTTTTTTTTTTTTTTTTTTTTTTTT MONMO3      TELAPSE        7.27 TCPU        4.83
 NUMERICALLY INTEGRATED DENSITY     56.0000061701
 TTTTTTTTTTTTTTTTTTTTTTTTTTTTTT NUMDFT      TELAPSE        7.29 TCPU        4.85
 CYC   4 ETOT(AU) -6.066043797760E+02 DETOT -1.54E-05 tst  2.80E-07 PX  1.60E-03
 TTTTTTTTTTTTTTTTTTTTTTTTTTTTTT DIIS        TELAPSE        7.29 TCPU        4.86
 DIIS TEST: 0.68225E-06 AT SCF   CYCLE   4 - DIIS ACTIVE - HISTORY:     4 CYCLES
 TTTTTTTTTTTTTTTTTTTTTTTTTTTTTT FDIK        TELAPSE        7.30 TCPU        4.86
 INSULATING STATE
 TOP OF VALENCE BANDS -    BAND     28; K    1; EIG -2.7162001E-01 AU
 BOTTOM OF VIRTUAL BANDS - BAND     29; K   35; EIG  1.0975045E-02 AU
 INDIRECT ENERGY BAND GAP:   7.6898 eV
 BOTTOM OF VIRTUAL BANDS - BAND     29; K    1; EIG  1.9554038E-02 AU
 TTTTTTTTTTTTTTTTTTTTTTTTTTTTTT PDIG        TELAPSE        7.31 TCPU        4.87
 TTTTTTTTTTTTTTTTTTTTTTTTTTTTTT MOQGAD      TELAPSE        7.31 TCPU        4.87
 TTTTTTTTTTTTTTTTTTTTTTTTTTTTTT SHELLXN     TELAPSE        7.55 TCPU        5.11
 TTTTTTTTTTTTTTTTTTTTTTTTTTTTTT MONMO3      TELAPSE        7.57 TCPU        5.13
 NUMERICALLY INTEGRATED DENSITY     56.0000061721
 TTTTTTTTTTTTTTTTTTTTTTTTTTTTTT NUMDFT      TELAPSE        7.59 TCPU        5.15
 CYC   5 ETOT(AU) -6.066043799150E+02 DETOT -1.39E-07 tst  1.34E-08 PX  3.68E-04
 TTTTTTTTTTTTTTTTTTTTTTTTTTTTTT DIIS        TELAPSE        7.60 TCPU        5.15
 DIIS TEST: 0.27514E-08 AT SCF   CYCLE   5 - DIIS ACTIVE - HISTORY:     5 CYCLES
 TTTTTTTTTTTTTTTTTTTTTTTTTTTTTT FDIK        TELAPSE        7.60 TCPU        5.16
 INSULATING STATE
 TOP OF VALENCE BANDS -    BAND     28; K    1; EIG -2.7161188E-01 AU
 BOTTOM OF VIRTUAL BANDS - BAND     29; K   35; EIG  1.0982150E-02 AU
 INDIRECT ENERGY BAND GAP:   7.6898 eV
 BOTTOM OF VIRTUAL BANDS - BAND     29; K    1; EIG  1.9561961E-02 AU
 TTTTTTTTTTTTTTTTTTTTTTTTTTTTTT PDIG        TELAPSE        7.61 TCPU        5.16
 TTTTTTTTTTTTTTTTTTTTTTTTTTTTTT MOQGAD      TELAPSE        7.61 TCPU        5.16
 TTTTTTTTTTTTTTTTTTTTTTTTTTTTTT SHELLXN     TELAPSE        7.85 TCPU        5.40
 TTTTTTTTTTTTTTTTTTTTTTTTTTTTTT MONMO3      TELAPSE        7.87 TCPU        5.42
 NUMERICALLY INTEGRATED DENSITY     56.0000061722
 TTTTTTTTTTTTTTTTTTTTTTTTTTTTTT NUMDFT      TELAPSE        7.90 TCPU        5.45
 CYC   6 ETOT(AU) -6.066043799081E+02 DETOT  6.84E-09 tst  5.32E-11 PX  1.50E-05
 TTTTTTTTTTTTTTTTTTTTTTTTTTTTTT DIIS        TELAPSE        7.90 TCPU        5.45
 DIIS TEST: 0.12022E-09 AT SCF   CYCLE   6 - DIIS ACTIVE - HISTORY:     6 CYCLES
 TTTTTTTTTTTTTTTTTTTTTTTTTTTTTT FDIK        TELAPSE        7.90 TCPU        5.45
 INSULATING STATE
 TOP OF VALENCE BANDS -    BAND     28; K    1; EIG -2.7160963E-01 AU
 BOTTOM OF VIRTUAL BANDS - BAND     29; K   35; EIG  1.0983668E-02 AU
 INDIRECT ENERGY BAND GAP:   7.6898 eV
 BOTTOM OF VIRTUAL BANDS - BAND     29; K    1; EIG  1.9563409E-02 AU
 TTTTTTTTTTTTTTTTTTTTTTTTTTTTTT PDIG        TELAPSE        7.91 TCPU        5.46
 TTTTTTTTTTTTTTTTTTTTTTTTTTTTTT MOQGAD      TELAPSE        7.91 TCPU        5.46
 TTTTTTTTTTTTTTTTTTTTTTTTTTTTTT SHELLXN     TELAPSE        8.15 TCPU        5.70
 TTTTTTTTTTTTTTTTTTTTTTTTTTTTTT MONMO3      TELAPSE        8.17 TCPU        5.72
 NUMERICALLY INTEGRATED DENSITY     56.0000061722
 TTTTTTTTTTTTTTTTTTTTTTTTTTTTTT NUMDFT      TELAPSE        8.20 TCPU        5.74
 CYC   7 ETOT(AU) -6.066043799083E+02 DETOT -1.67E-10 tst  8.38E-13 PX  2.05E-06
 TTTTTTTTTTTTTTTTTTTTTTTTTTTTTT DIIS        TELAPSE        8.20 TCPU        5.75
 DIIS TEST: 0.28444E-11 AT SCF   CYCLE   7 - DIIS ACTIVE - HISTORY:     7 CYCLES
 TTTTTTTTTTTTTTTTTTTTTTTTTTTTTT FDIK        TELAPSE        8.21 TCPU        5.75
 INSULATING STATE
 TOP OF VALENCE BANDS -    BAND     28; K    1; EIG -2.7160929E-01 AU
 BOTTOM OF VIRTUAL BANDS - BAND     29; K   35; EIG  1.0983931E-02 AU
 INDIRECT ENERGY BAND GAP:   7.6898 eV
 BOTTOM OF VIRTUAL BANDS - BAND     29; K    1; EIG  1.9563655E-02 AU
 TTTTTTTTTTTTTTTTTTTTTTTTTTTTTT PDIG        TELAPSE        8.21 TCPU        5.76
 TTTTTTTTTTTTTTTTTTTTTTTTTTTTTT MOQGAD      TELAPSE        8.21 TCPU        5.76
 TTTTTTTTTTTTTTTTTTTTTTTTTTTTTT SHELLXN     TELAPSE        8.46 TCPU        6.00
 TTTTTTTTTTTTTTTTTTTTTTTTTTTTTT MONMO3      TELAPSE        8.48 TCPU        6.02
 NUMERICALLY INTEGRATED DENSITY     56.0000061722
 TTTTTTTTTTTTTTTTTTTTTTTTTTTTTT NUMDFT      TELAPSE        8.51 TCPU        6.05
 CYC   8 ETOT(AU) -6.066043799085E+02 DETOT -2.44E-10 tst  6.02E-14 PX  3.31E-07
 TTTTTTTTTTTTTTTTTTTTTTTTTTTTTT DIIS        TELAPSE        8.51 TCPU        6.05
 DIIS TEST: 0.40357E-13 AT SCF   CYCLE   8 - DIIS ACTIVE - HISTORY:     8 CYCLES
 TTTTTTTTTTTTTTTTTTTTTTTTTTTTTT FDIK        TELAPSE        8.51 TCPU        6.05
 INSULATING STATE
 TOP OF VALENCE BANDS -    BAND     28; K    1; EIG -2.7160931E-01 AU
 BOTTOM OF VIRTUAL BANDS - BAND     29; K   35; EIG  1.0983932E-02 AU
 INDIRECT ENERGY BAND GAP:   7.6898 eV
 BOTTOM OF VIRTUAL BANDS - BAND     29; K    1; EIG  1.9563651E-02 AU
 TTTTTTTTTTTTTTTTTTTTTTTTTTTTTT PDIG        TELAPSE        8.52 TCPU        6.06
 TTTTTTTTTTTTTTTTTTTTTTTTTTTTTT MOQGAD      TELAPSE        8.52 TCPU        6.06
 TTTTTTTTTTTTTTTTTTTTTTTTTTTTTT SHELLXN     TELAPSE        8.76 TCPU        6.30
 TTTTTTTTTTTTTTTTTTTTTTTTTTTTTT MONMO3      TELAPSE        8.78 TCPU        6.32
 NUMERICALLY INTEGRATED DENSITY     56.0000061722
 TTTTTTTTTTTTTTTTTTTTTTTTTTTTTT NUMDFT      TELAPSE        8.81 TCPU        6.34
 CYC   9 ETOT(AU) -6.066043799085E+02 DETOT  2.85E-11 tst  5.37E-16 PX  4.45E-08
 TTTTTTTTTTTTTTTTTTTTTTTTTTTTTT DIIS        TELAPSE        8.81 TCPU        6.34
 DIIS TEST: 0.43243E-17 AT SCF   CYCLE   9 - DIIS ACTIVE - HISTORY:     9 CYCLES
 TTTTTTTTTTTTTTTTTTTTTTTTTTTTTT FDIK        TELAPSE        8.82 TCPU        6.35
 INSULATING STATE
 TOP OF VALENCE BANDS -    BAND     28; K    1; EIG -2.7160931E-01 AU
 BOTTOM OF VIRTUAL BANDS - BAND     29; K   35; EIG  1.0983932E-02 AU
 INDIRECT ENERGY BAND GAP:   7.6898 eV
 BOTTOM OF VIRTUAL BANDS - BAND     29; K    1; EIG  1.9563651E-02 AU
 TTTTTTTTTTTTTTTTTTTTTTTTTTTTTT PDIG        TELAPSE        8.82 TCPU        6.35
 TTTTTTTTTTTTTTTTTTTTTTTTTTTTTT MOQGAD      TELAPSE        8.82 TCPU        6.35
 TTTTTTTTTTTTTTTTTTTTTTTTTTTTTT SHELLXN     TELAPSE        9.07 TCPU        6.60
 TTTTTTTTTTTTTTTTTTTTTTTTTTTTTT MONMO3      TELAPSE        9.09 TCPU        6.62
 NUMERICALLY INTEGRATED DENSITY     56.0000061722
 TTTTTTTTTTTTTTTTTTTTTTTTTTTTTT NUMDFT      TELAPSE        9.11 TCPU        6.64
 CYC  10 ETOT(AU) -6.066043799085E+02 DETOT  2.39E-12 tst  2.90E-19 PX  7.47E-10
 TTTTTTTTTTTTTTTTTTTTTTTTTTTTTT DIIS        TELAPSE        9.19 TCPU        6.71
 DIIS TEST: 0.12889E-19 AT SCF   CYCLE  10 - DIIS ACTIVE - HISTORY:    10 CYCLES
 TTTTTTTTTTTTTTTTTTTTTTTTTTTTTT FDIK        TELAPSE        9.19 TCPU        6.72
 INSULATING STATE
 TOP OF VALENCE BANDS -    BAND     28; K    1; EIG -2.7160931E-01 AU
 BOTTOM OF VIRTUAL BANDS - BAND     29; K   35; EIG  1.0983932E-02 AU
 INDIRECT ENERGY BAND GAP:   7.6898 eV
 BOTTOM OF VIRTUAL BANDS - BAND     29; K    1; EIG  1.9563651E-02 AU
 TTTTTTTTTTTTTTTTTTTTTTTTTTTTTT PDIG        TELAPSE        9.20 TCPU        6.72
 TTTTTTTTTTTTTTTTTTTTTTTTTTTTTT MOQGAD      TELAPSE        9.20 TCPU        6.72
 TTTTTTTTTTTTTTTTTTTTTTTTTTTTTT SHELLXN     TELAPSE        9.44 TCPU        6.96
 ::: PSEUDO TOTAL   ENERGY                        -5.6999751445190E+02
 ::: VIRIAL COEFFICIENT                            5.8711258542546E-01
 TTTTTTTTTTTTTTTTTTTTTTTTTTTTTT MONMO3      TELAPSE        9.46 TCPU        6.98
 NUMERICALLY INTEGRATED DENSITY     56.0000061722
 EXCHANGE ENERGY: -0.341586489881E+02  CORRELATION ENERGY: -0.244821646847E+01
 TTTTTTTTTTTTTTTTTTTTTTTTTTTTTT NUMDFT      TELAPSE        9.49 TCPU        7.01
 CYC  11 ETOT(AU) -6.066043799085E+02 DETOT -1.48E-12 tst  1.14E-21 PX  7.47E-10

 == SCF ENDED - CONVERGENCE ON ENERGY      E(AU) -6.0660437990851E+02 CYCLES  11


 ENERGY EXPRESSION=HARTREE+FOCK EXCH*0.25000+(PBE        EXCH)*0.75000+PBE        CORR


 TOTAL ENERGY(DFT)(AU)( 11) -6.0660437990851E+02 DE-1.5E-12 tester 1.1E-21
 TTTTTTTTTTTTTTTTTTTTTTTTTTTTTT EDFT        TELAPSE        9.49 TCPU        7.01

 *******************************************************************************
 *                             FORCE CALCULATION                               *
 *******************************************************************************

 TTTTTTTTTTTTTTTTTTTTTTTTTTTTTT NUMDFG      TELAPSE        9.59 TCPU        7.11
 INFORMATION **** EXCPOG **** EXCH. BIPO BUFFER LENGTH (WORDS) =     1302912
 INFORMATION **** GENPOG **** BIPO BUFFER LENGTH (WORDS) =      234200
 TTTTTTTTTTTTTTTTTTTTTTTTTTTTTT SHELXG      TELAPSE       11.21 TCPU        8.72

 CARTESIAN FORCES IN HARTREE/BOHR (ANALYTICAL)
   ATOM                     X                   Y                   Z
   1   3            -2.862959799217E-16 -3.137231278830E-16 -8.451501862937E-04
   2   3             3.886040384324E-16  1.929693682819E-16 -8.451501863001E-04
   3 253            -9.247726199051E-16 -3.510910581618E-16  8.451501862702E-04
   4 253             8.199616454141E-16  4.771951113879E-16  8.451501863238E-04

 RESULTANT FORCE    -2.502915980318E-18  5.350293625009E-18  2.684484579074E-16

 ATOMIC PART

 SYMMETRY ALLOWED FORCES (ANALYTICAL) (DIRECTION, FORCE)

    1 -1.6903004E-03

 CELL PART

 GRADIENT WITH RESPECT TO THE CELL PARAMETER IN HARTREE/BOHR
ORDER: -D/DA1X, -D/DA1Y, -D/DA1Z
       -D/DA2X, -D/DA2Y, -D/DA2Z
       -D/DA3X, -D/DA3Y, -D/DA3Z
 -0.132887291844E-02 -0.859227160604E-15  0.578972989315E-15
 -0.664436459217E-03 -0.115083770577E-02  0.267400397516E-15
  0.192550606262E-15 -0.150413120030E-15 -0.369465894191E-03

STRESS TENSOR, IN HARTREE/BOHR^3:
ORDER: 11 12 13
       21 22 23
       31 32 33
  0.112758002528E-04 -0.435111772489E-16 -0.305557825592E-17
  0.729074518734E-17  0.112758002527E-04  0.238690008767E-17
 -0.491272241963E-17  0.216397515025E-18  0.586304023917E-05

PRESSURE FROM THE STRESS TENSOR,
IN HARTREE/BOHR^3: -0.94715E-05
PRESSURE IN GIGAPASCAL: -0.2787E+00
CONVERSION FACTOR: 1 HARTREE/BOHR^3= 29421 GIGAPASCAL
WHEN USING VALUES FOR BOHR RADIUS AND HARTREE
FROM IUPAC WEBSITE, APRIL 2009
ENTHALPY: -6.0661262599807E+02

 SYMMETRY ALLOWED FORCES (ANALYTICAL) (DIRECTION, FORCE)

    1 -1.8723766E-03    2 -4.6706324E-04
 TTTTTTTTTTTTTTTTTTTTTTTTTTTTTT TOTGRA      TELAPSE       11.46 TCPU        8.97
 INFORMATION **** optc001 **** GEOMETRY OUTPUT FILE
 CLASSICAL MODEL (SCHLEGEL) USED AS INITIAL HESSIAN MATRIX
 REFERENCE GEOMETRY DEFINED

 MAX GRADIENT      0.001872  THRESHOLD              0.000045 CONVERGED NO
 RMS GRADIENT      0.001481  THRESHOLD              0.000030 CONVERGED NO

 GRADIENT NORM     0.002565  GRADIENT THRESHOLD     0.500000

 EIGENVALUES OF THE ESTIMATED HESSIAN
  0.3710E-01  0.4802E-01  0.2600    

 INITIAL TRUST RADIUS    0.5000000000E+00

 PREDICTED ENERGY CHANGE    -0.442E-04

 INITIAL DISPLACEMENTS
 -0.006119 -0.039150 -0.010193
 TTTTTTTTTTTTTTTTTTTTTTTTTTTTTT OPTI        TELAPSE       11.50 TCPU        9.01

 OPTOPTOPTOPTOPTOPTOPTOPTOPTOPTOPTOPTOPTOPTOPTOPTOPTOPTOPTOPTOPTOPTOPTOPTOPTOPT

 - INFORMATION ON SCF MOVED TO SCFOUT.LOG
 GEOMETRY OPTIMIZATION INFORMATION STORED IN OPTINFO.DAT

 OPTOPTOPTOPTOPTOPTOPTOPTOPTOPTOPTOPTOPTOPTOPTOPTOPTOPTOPTOPTOPTOPTOPTOPTOPTOPT
 *******************************************************************************
 COORDINATE AND CELL OPTIMIZATION - POINT    2
 *******************************************************************************
 LATTICE PARAMETERS (ANGSTROMS AND DEGREES) - BOHR = 0.5291772083 ANGSTROM
 PRIMITIVE CELL - CENTRING CODE 1/0 VOLUME=   127.868577 - DENSITY  3.478 g/cm^3
         A              B              C           ALPHA      BETA       GAMMA 
     4.49834434     4.49834434     7.29672214    90.000000  90.000000 120.000000
 *******************************************************************************
 ATOMS IN THE ASYMMETRIC UNIT    2 - ATOMS IN THE UNIT CELL:    4
     ATOM                 X/A                 Y/B                 Z/C    
 *******************************************************************************
      1 T   3 LI   -3.333333333333E-01  3.333333333333E-01  4.997785518780E-01
      2 F   3 LI    3.333333333333E-01 -3.333333333333E-01 -2.214481220274E-04
      3 T 253 I    -3.333333333333E-01  3.333333333333E-01 -1.247785518780E-01
      4 F 253 I     3.333333333333E-01 -3.333333333333E-01  3.752214481220E-01

 T = ATOM BELONGING TO THE ASYMMETRIC UNIT

 TOTAL ENERGY(DFT)(AU)(  9) -6.0660444635618E+02     DE (AU)   -6.645E-05

 UPDATED TRUST RADIUS     0.500E+00

 SYMMETRY ALLOWED FORCES  (COORDINATE, FORCE)

    1 -1.2861655E-03    2 -7.2794401E-04    3 -2.4853651E-04

 GRADIENT NORM     0.001499  GRADIENT THRESHOLD     0.500000

 EIGENVALUES OF THE ESTIMATED HESSIAN
  0.2886E-01  0.3839E-01  0.2341    

 PREDICTED ENERGY CHANGE    -0.174E-04

 MAX GRADIENT      0.001286  THRESHOLD              0.000045 CONVERGED NO
 RMS GRADIENT      0.000865  THRESHOLD              0.000030 CONVERGED NO
 MAX DISPLAC.      0.029144  THRESHOLD              0.000180 CONVERGED NO
 RMS DISPLAC.      0.018349  THRESHOLD              0.000120 CONVERGED NO
 TTTTTTTTTTTTTTTTTTTTTTTTTTTTTT OPTI        TELAPSE       17.06 TCPU       14.49
 *******************************************************************************
 COORDINATE AND CELL OPTIMIZATION - POINT    3
 *******************************************************************************
 LATTICE PARAMETERS (ANGSTROMS AND DEGREES) - BOHR = 0.5291772083 ANGSTROM
 PRIMITIVE CELL - CENTRING CODE 1/0 VOLUME=   127.024205 - DENSITY  3.501 g/cm^3
         A              B              C           ALPHA      BETA       GAMMA 
     4.48638562     4.48638562     7.28723296    90.000000  90.000000 120.000000
 *******************************************************************************
 ATOMS IN THE ASYMMETRIC UNIT    2 - ATOMS IN THE UNIT CELL:    4
     ATOM                 X/A                 Y/B                 Z/C    
 *******************************************************************************
      1 T   3 LI   -3.333333333333E-01  3.333333333333E-01  4.994603770653E-01
      2 F   3 LI    3.333333333333E-01 -3.333333333333E-01 -5.396229346886E-04
      3 T 253 I    -3.333333333333E-01  3.333333333333E-01 -1.244603770653E-01
      4 F 253 I     3.333333333333E-01 -3.333333333333E-01  3.755396229347E-01

 T = ATOM BELONGING TO THE ASYMMETRIC UNIT

 TOTAL ENERGY(DFT)(AU)(  9) -6.0660446688407E+02     DE (AU)   -2.053E-05

 UPDATED TRUST RADIUS     0.500E+00

 SYMMETRY ALLOWED FORCES  (COORDINATE, FORCE)

    1 -7.7179403E-04    2  1.4004267E-04    3  2.1240063E-05

 GRADIENT NORM     0.000785  GRADIENT THRESHOLD     0.500000

 EIGENVALUES OF THE ESTIMATED HESSIAN
  0.3153E-01  0.3795E-01  0.2011    

 PREDICTED ENERGY CHANGE    -0.158E-05

 MAX GRADIENT      0.000772  THRESHOLD              0.000045 CONVERGED NO
 RMS GRADIENT      0.000453  THRESHOLD              0.000030 CONVERGED NO
 MAX DISPLAC.      0.004192  THRESHOLD              0.000180 CONVERGED NO
 RMS DISPLAC.      0.002487  THRESHOLD              0.000120 CONVERGED NO
 TTTTTTTTTTTTTTTTTTTTTTTTTTTTTT OPTI        TELAPSE       22.66 TCPU       20.01
 *******************************************************************************
 COORDINATE AND CELL OPTIMIZATION - POINT    4
 *******************************************************************************
 LATTICE PARAMETERS (ANGSTROMS AND DEGREES) - BOHR = 0.5291772083 ANGSTROM
 PRIMITIVE CELL - CENTRING CODE 1/0 VOLUME=   127.005674 - DENSITY  3.502 g/cm^3
         A              B              C           ALPHA      BETA       GAMMA 
     4.48633555     4.48633555     7.28633248    90.000000  90.000000 120.000000
 *******************************************************************************
 ATOMS IN THE ASYMMETRIC UNIT    2 - ATOMS IN THE UNIT CELL:    4
     ATOM                 X/A                 Y/B                 Z/C    
 *******************************************************************************
      1 T   3 LI   -3.333333333333E-01  3.333333333333E-01  4.993086632348E-01
      2 F   3 LI    3.333333333333E-01 -3.333333333333E-01 -6.913367651861E-04
      3 T 253 I    -3.333333333333E-01  3.333333333333E-01 -1.243086632348E-01
      4 F 253 I     3.333333333333E-01 -3.333333333333E-01  3.756913367652E-01

 T = ATOM BELONGING TO THE ASYMMETRIC UNIT

 TOTAL ENERGY(DFT)(AU)(  9) -6.0660446944810E+02     DE (AU)   -2.564E-06

 UPDATED TRUST RADIUS     0.500E+00

 SYMMETRY ALLOWED FORCES  (COORDINATE, FORCE)

    1 -6.1759849E-04    2  1.5971050E-04    3  8.7863845E-05

 GRADIENT NORM     0.000644  GRADIENT THRESHOLD     0.500000

 EIGENVALUES OF THE ESTIMATED HESSIAN
  0.1857E-01  0.3720E-01  0.6705E-01

 PREDICTED ENERGY CHANGE    -0.827E-05

 MAX GRADIENT      0.000618  THRESHOLD              0.000045 CONVERGED NO
 RMS GRADIENT      0.000372  THRESHOLD              0.000030 CONVERGED NO
 MAX DISPLAC.      0.023582  THRESHOLD              0.000180 CONVERGED NO
 RMS DISPLAC.      0.016324  THRESHOLD              0.000120 CONVERGED NO
 TTTTTTTTTTTTTTTTTTTTTTTTTTTTTT OPTI        TELAPSE       28.24 TCPU       25.52
 *******************************************************************************
 COORDINATE AND CELL OPTIMIZATION - POINT    5
 *******************************************************************************
 LATTICE PARAMETERS (ANGSTROMS AND DEGREES) - BOHR = 0.5291772083 ANGSTROM
 PRIMITIVE CELL - CENTRING CODE 1/0 VOLUME=   127.124411 - DENSITY  3.499 g/cm^3
         A              B              C           ALPHA      BETA       GAMMA 
     4.49108047     4.49108047     7.27774188    90.000000  90.000000 120.000000
 *******************************************************************************
 ATOMS IN THE ASYMMETRIC UNIT    2 - ATOMS IN THE UNIT CELL:    4
     ATOM                 X/A                 Y/B                 Z/C    
 *******************************************************************************
      1 T   3 LI   -3.333333333333E-01  3.333333333333E-01  4.984552137133E-01
      2 F   3 LI    3.333333333333E-01 -3.333333333333E-01 -1.544786286671E-03
      3 T 253 I    -3.333333333333E-01  3.333333333333E-01 -1.234552137133E-01
      4 F 253 I     3.333333333333E-01 -3.333333333333E-01  3.765447862867E-01

 T = ATOM BELONGING TO THE ASYMMETRIC UNIT

 TOTAL ENERGY(DFT)(AU)( 10) -6.0660447682249E+02     DE (AU)   -7.374E-06

 UPDATED TRUST RADIUS     0.500E+00

 SYMMETRY ALLOWED FORCES  (COORDINATE, FORCE)

    1  3.1744842E-05    2  4.2417396E-05    3  3.1652455E-04

 GRADIENT NORM     0.000321  GRADIENT THRESHOLD     0.500000

 EIGENVALUES OF THE ESTIMATED HESSIAN
  0.1045E-01  0.3679E-01  0.8999E-01

 PREDICTED ENERGY CHANGE    -0.250E-05

 MAX GRADIENT      0.000317  THRESHOLD              0.000045 CONVERGED NO
 RMS GRADIENT      0.000185  THRESHOLD              0.000030 CONVERGED NO
 MAX DISPLAC.      0.016590  THRESHOLD              0.000180 CONVERGED NO
 RMS DISPLAC.      0.011860  THRESHOLD              0.000120 CONVERGED NO
 TTTTTTTTTTTTTTTTTTTTTTTTTTTTTT OPTI        TELAPSE       34.11 TCPU       31.30
 *******************************************************************************
 COORDINATE AND CELL OPTIMIZATION - POINT    6
 *******************************************************************************
 LATTICE PARAMETERS (ANGSTROMS AND DEGREES) - BOHR = 0.5291772083 ANGSTROM
 PRIMITIVE CELL - CENTRING CODE 1/0 VOLUME=   127.204711 - DENSITY  3.496 g/cm^3
         A              B              C           ALPHA      BETA       GAMMA 
     4.49572113     4.49572113     7.26731249    90.000000  90.000000 120.000000
 *******************************************************************************
 ATOMS IN THE ASYMMETRIC UNIT    2 - ATOMS IN THE UNIT CELL:    4
     ATOM                 X/A                 Y/B                 Z/C    
 *******************************************************************************
      1 T   3 LI   -3.333333333333E-01  3.333333333333E-01  4.980286079124E-01
      2 F   3 LI    3.333333333333E-01 -3.333333333333E-01 -1.971392087563E-03
      3 T 253 I    -3.333333333333E-01  3.333333333333E-01 -1.230286079124E-01
      4 F 253 I     3.333333333333E-01 -3.333333333333E-01  3.769713920876E-01

 T = ATOM BELONGING TO THE ASYMMETRIC UNIT

 TOTAL ENERGY(DFT)(AU)(  8) -6.0660447865286E+02     DE (AU)   -1.830E-06

 UPDATED TRUST RADIUS     0.500E+00

 SYMMETRY ALLOWED FORCES  (COORDINATE, FORCE)

    1  1.8365705E-04    2 -3.8493965E-05    3  3.1067958E-04

 GRADIENT NORM     0.000363  GRADIENT THRESHOLD     0.500000

 EIGENVALUES OF THE ESTIMATED HESSIAN
  0.4390E-02  0.3762E-01  0.8863E-01

 PREDICTED ENERGY CHANGE    -0.368E-05

 MAX GRADIENT      0.000311  THRESHOLD              0.000045 CONVERGED NO
 RMS GRADIENT      0.000210  THRESHOLD              0.000030 CONVERGED NO
 MAX DISPLAC.      0.033744  THRESHOLD              0.000180 CONVERGED NO
 RMS DISPLAC.      0.021747  THRESHOLD              0.000120 CONVERGED NO
 TTTTTTTTTTTTTTTTTTTTTTTTTTTTTT OPTI        TELAPSE       39.44 TCPU       36.57
 *******************************************************************************
 COORDINATE AND CELL OPTIMIZATION - POINT    7
 *******************************************************************************
 LATTICE PARAMETERS (ANGSTROMS AND DEGREES) - BOHR = 0.5291772083 ANGSTROM
 PRIMITIVE CELL - CENTRING CODE 1/0 VOLUME=   127.260629 - DENSITY  3.495 g/cm^3
         A              B              C           ALPHA      BETA       GAMMA 
     4.50391032     4.50391032     7.24409211    90.000000  90.000000 120.000000
 *******************************************************************************
 ATOMS IN THE ASYMMETRIC UNIT    2 - ATOMS IN THE UNIT CELL:    4
     ATOM                 X/A                 Y/B                 Z/C    
 *******************************************************************************
      1 T   3 LI   -3.333333333333E-01  3.333333333333E-01  4.974270986065E-01
      2 F   3 LI    3.333333333333E-01 -3.333333333333E-01 -2.572901393506E-03
      3 T 253 I    -3.333333333333E-01  3.333333333333E-01 -1.224270986065E-01
      4 F 253 I     3.333333333333E-01 -3.333333333333E-01  3.775729013935E-01

 T = ATOM BELONGING TO THE ASYMMETRIC UNIT

 TOTAL ENERGY(DFT)(AU)(  9) -6.0660447983707E+02     DE (AU)   -1.184E-06

 UPDATED TRUST RADIUS     0.500E+00

 SYMMETRY ALLOWED FORCES  (COORDINATE, FORCE)

    1  2.0772668E-04    2 -9.6845737E-05    3  1.6864540E-04

 GRADIENT NORM     0.000285  GRADIENT THRESHOLD     0.500000

 EIGENVALUES OF THE ESTIMATED HESSIAN
  0.3662E-02  0.3829E-01  0.7533E-01

 PREDICTED ENERGY CHANGE    -0.913E-06

 MAX GRADIENT      0.000208  THRESHOLD              0.000045 CONVERGED NO
 RMS GRADIENT      0.000164  THRESHOLD              0.000030 CONVERGED NO
 MAX DISPLAC.      0.014446  THRESHOLD              0.000180 CONVERGED NO
 RMS DISPLAC.      0.008657  THRESHOLD              0.000120 CONVERGED NO
 TTTTTTTTTTTTTTTTTTTTTTTTTTTTTT OPTI        TELAPSE       45.03 TCPU       42.08
 *******************************************************************************
 COORDINATE AND CELL OPTIMIZATION - POINT    8
 *******************************************************************************
 LATTICE PARAMETERS (ANGSTROMS AND DEGREES) - BOHR = 0.5291772083 ANGSTROM
 PRIMITIVE CELL - CENTRING CODE 1/0 VOLUME=   127.214218 - DENSITY  3.496 g/cm^3
         A              B              C           ALPHA      BETA       GAMMA 
     4.50658935     4.50658935     7.23284321    90.000000  90.000000 120.000000
 *******************************************************************************
 ATOMS IN THE ASYMMETRIC UNIT    2 - ATOMS IN THE UNIT CELL:    4
     ATOM                 X/A                 Y/B                 Z/C    
 *******************************************************************************
      1 T   3 LI   -3.333333333333E-01  3.333333333333E-01  4.972936678062E-01
      2 F   3 LI    3.333333333333E-01 -3.333333333333E-01 -2.706332193820E-03
      3 T 253 I    -3.333333333333E-01  3.333333333333E-01 -1.222936678062E-01
      4 F 253 I     3.333333333333E-01 -3.333333333333E-01  3.777063321938E-01

 T = ATOM BELONGING TO THE ASYMMETRIC UNIT

 TOTAL ENERGY(DFT)(AU)(  9) -6.0660447991290E+02     DE (AU)   -7.583E-08

 UPDATED TRUST RADIUS     0.375E-02

 SYMMETRY ALLOWED FORCES  (COORDINATE, FORCE)

    1  8.9124139E-05    2 -4.9775900E-05    3  4.7395415E-05

 GRADIENT NORM     0.000113  GRADIENT THRESHOLD     0.500000

 EIGENVALUES OF THE ESTIMATED HESSIAN
  0.4026E-02  0.3657E-01  0.5462E-01

 PREDICTED ENERGY CHANGE    -0.131E-06

 MAX GRADIENT      0.000089  THRESHOLD              0.000045 CONVERGED NO
 RMS GRADIENT      0.000065  THRESHOLD              0.000030 CONVERGED NO
 MAX DISPLAC.      0.001946  THRESHOLD              0.000180 CONVERGED NO
 RMS DISPLAC.      0.001531  THRESHOLD              0.000120 CONVERGED NO
 TTTTTTTTTTTTTTTTTTTTTTTTTTTTTT OPTI        TELAPSE       50.63 TCPU       47.61
 *******************************************************************************
 COORDINATE AND CELL OPTIMIZATION - POINT    9
 *******************************************************************************
 LATTICE PARAMETERS (ANGSTROMS AND DEGREES) - BOHR = 0.5291772083 ANGSTROM
 PRIMITIVE CELL - CENTRING CODE 1/0 VOLUME=   127.173602 - DENSITY  3.497 g/cm^3
         A              B              C           ALPHA      BETA       GAMMA 
     4.50654442     4.50654442     7.23067809    90.000000  90.000000 120.000000
 *******************************************************************************
 ATOMS IN THE ASYMMETRIC UNIT    2 - ATOMS IN THE UNIT CELL:    4
     ATOM                 X/A                 Y/B                 Z/C    
 *******************************************************************************
      1 T   3 LI   -3.333333333333E-01  3.333333333333E-01  4.973344044037E-01
      2 F   3 LI    3.333333333333E-01 -3.333333333333E-01 -2.665595596321E-03
      3 T 253 I    -3.333333333333E-01  3.333333333333E-01 -1.223344044037E-01
      4 F 253 I     3.333333333333E-01 -3.333333333333E-01  3.776655955963E-01

 T = ATOM BELONGING TO THE ASYMMETRIC UNIT

 TOTAL ENERGY(DFT)(AU)(  8) -6.0660448011117E+02     DE (AU)   -1.983E-07

 UPDATED TRUST RADIUS     0.750E-02

 SYMMETRY ALLOWED FORCES  (COORDINATE, FORCE)

    1  1.2718325E-05    2 -7.5433319E-06    3  2.1384627E-06

 GRADIENT NORM     0.000015  GRADIENT THRESHOLD     0.500000

 EIGENVALUES OF THE ESTIMATED HESSIAN
  0.4191E-02  0.3397E-01  0.5023E-01

 PREDICTED ENERGY CHANGE    -0.441E-08

 MAX GRADIENT      0.000013  THRESHOLD              0.000045 CONVERGED YES
 RMS GRADIENT      0.000009  THRESHOLD              0.000030 CONVERGED YES
 MAX DISPLAC.      0.000714  THRESHOLD              0.000180 CONVERGED NO
 RMS DISPLAC.      0.000582  THRESHOLD              0.000120 CONVERGED NO
 TTTTTTTTTTTTTTTTTTTTTTTTTTTTTT OPTI        TELAPSE       55.94 TCPU       52.78
 *******************************************************************************
 COORDINATE AND CELL OPTIMIZATION - POINT   10
 *******************************************************************************
 LATTICE PARAMETERS (ANGSTROMS AND DEGREES) - BOHR = 0.5291772083 ANGSTROM
 PRIMITIVE CELL - CENTRING CODE 1/0 VOLUME=   127.166546 - DENSITY  3.497 g/cm^3
         A              B              C           ALPHA      BETA       GAMMA 
     4.50630155     4.50630155     7.23105630    90.000000  90.000000 120.000000
 *******************************************************************************
 ATOMS IN THE ASYMMETRIC UNIT    2 - ATOMS IN THE UNIT CELL:    4
     ATOM                 X/A                 Y/B                 Z/C    
 *******************************************************************************
      1 T   3 LI   -3.333333333333E-01  3.333333333333E-01  4.973586060843E-01
      2 F   3 LI    3.333333333333E-01 -3.333333333333E-01 -2.641393915736E-03
      3 T 253 I    -3.333333333333E-01  3.333333333333E-01 -1.223586060843E-01
      4 F 253 I     3.333333333333E-01 -3.333333333333E-01  3.776413939157E-01

 T = ATOM BELONGING TO THE ASYMMETRIC UNIT

 N OF POINTS AFTER LAST CHANGE:    10

 REFERENCE GEOMETRY WILL BE CHANGED

 TOTAL ENERGY(DFT)(AU)(  6) -6.0660440065755E+02     DE (AU)    7.945E-05

 SYMMETRY ALLOWED FORCES  (COORDINATE, FORCE)

    1 -2.2496754E-05    2  6.2471069E-05    3 -4.6653991E-05

 GRADIENT NORM     0.000081  GRADIENT THRESHOLD     0.500000

 HESSIAN UPDATE SKIPPED

 EIGENVALUES OF THE ESTIMATED HESSIAN
  0.4191E-02  0.3397E-01  0.5023E-01
 NEWTON STEP ( 0.7713958826E-02) EXCEEDS TRUST RADIUS ( 0.7497255894E-02)
 LEVEL SHIFT     0.4666949002E-04

 PREDICTED ENERGY CHANGE    -0.194E-06

 MAX GRADIENT      0.000062  THRESHOLD              0.000045 CONVERGED NO
 RMS GRADIENT      0.000047  THRESHOLD              0.000030 CONVERGED NO
 MAX DISPLAC.      0.006836  THRESHOLD              0.000180 CONVERGED NO
 RMS DISPLAC.      0.004329  THRESHOLD              0.000120 CONVERGED NO
 TTTTTTTTTTTTTTTTTTTTTTTTTTTTTT OPTI        TELAPSE       61.31 TCPU       58.09
 *******************************************************************************
 COORDINATE AND CELL OPTIMIZATION - POINT   11
 *******************************************************************************
 LATTICE PARAMETERS (ANGSTROMS AND DEGREES) - BOHR = 0.5291772083 ANGSTROM
 PRIMITIVE CELL - CENTRING CODE 1/0 VOLUME=   127.219124 - DENSITY  3.496 g/cm^3
         A              B              C           ALPHA      BETA       GAMMA 
     4.50539640     4.50539640     7.23695304    90.000000  90.000000 120.000000
 *******************************************************************************
 ATOMS IN THE ASYMMETRIC UNIT    2 - ATOMS IN THE UNIT CELL:    4
     ATOM                 X/A                 Y/B                 Z/C    
 *******************************************************************************
      1 T   3 LI   -3.333333333333E-01  3.333333333333E-01  4.974483875619E-01
      2 F   3 LI    3.333333333333E-01 -3.333333333333E-01 -2.551612438055E-03
      3 T 253 I    -3.333333333333E-01  3.333333333333E-01 -1.224483875619E-01
      4 F 253 I     3.333333333333E-01 -3.333333333333E-01  3.775516124381E-01

 T = ATOM BELONGING TO THE ASYMMETRIC UNIT

 TOTAL ENERGY(DFT)(AU)(  8) -6.0660440148501E+02     DE (AU)   -8.275E-07

 UPDATED TRUST RADIUS     0.150E-01

 SYMMETRY ALLOWED FORCES  (COORDINATE, FORCE)

    1  6.5765291E-06    2  7.6436222E-06    3 -2.1031194E-06

 GRADIENT NORM     0.000010  GRADIENT THRESHOLD     0.500000

 EIGENVALUES OF THE ESTIMATED HESSIAN
  0.3737E-02  0.3358E-01  0.5186E-01

 PREDICTED ENERGY CHANGE    -0.447E-08

 MAX GRADIENT      0.000008  THRESHOLD              0.000045 CONVERGED YES
 RMS GRADIENT      0.000006  THRESHOLD              0.000030 CONVERGED YES
 MAX DISPLAC.      0.001160  THRESHOLD              0.000180 CONVERGED NO
 RMS DISPLAC.      0.000796  THRESHOLD              0.000120 CONVERGED NO
 TTTTTTTTTTTTTTTTTTTTTTTTTTTTTT OPTI        TELAPSE       67.28 TCPU       64.00
 *******************************************************************************
 COORDINATE AND CELL OPTIMIZATION - POINT   12
 *******************************************************************************
 LATTICE PARAMETERS (ANGSTROMS AND DEGREES) - BOHR = 0.5291772083 ANGSTROM
 PRIMITIVE CELL - CENTRING CODE 1/0 VOLUME=   127.226185 - DENSITY  3.496 g/cm^3
         A              B              C           ALPHA      BETA       GAMMA 
     4.50522082     4.50522082     7.23791882    90.000000  90.000000 120.000000
 *******************************************************************************
 ATOMS IN THE ASYMMETRIC UNIT    2 - ATOMS IN THE UNIT CELL:    4
     ATOM                 X/A                 Y/B                 Z/C    
 *******************************************************************************
      1 T   3 LI   -3.333333333333E-01  3.333333333333E-01  4.974738460011E-01
      2 F   3 LI    3.333333333333E-01 -3.333333333333E-01 -2.526153998932E-03
      3 T 253 I    -3.333333333333E-01  3.333333333333E-01 -1.224738460011E-01
      4 F 253 I     3.333333333333E-01 -3.333333333333E-01  3.775261539989E-01

 T = ATOM BELONGING TO THE ASYMMETRIC UNIT

 TOTAL ENERGY(DFT)(AU)(  7) -6.0660440162129E+02     DE (AU)   -1.363E-07

 UPDATED TRUST RADIUS     0.300E-01

 SYMMETRY ALLOWED FORCES  (COORDINATE, FORCE)

    1  9.3161356E-07    2  2.7869343E-07    3  4.1456795E-07

 GRADIENT NORM     0.000001  GRADIENT THRESHOLD     0.500000

 EIGENVALUES OF THE ESTIMATED HESSIAN
  0.3728E-02  0.3348E-01  0.5073E-01

 PREDICTED ENERGY CHANGE    -0.121E-10

 MAX GRADIENT      0.000001  THRESHOLD              0.000045 CONVERGED YES
 RMS GRADIENT      0.000001  THRESHOLD              0.000030 CONVERGED YES
 MAX DISPLAC.      0.000028  THRESHOLD              0.000180 CONVERGED YES
 RMS DISPLAC.      0.000018  THRESHOLD              0.000120 CONVERGED YES

 CONVERGENCE TESTS SATISFIED AFTER  12 ENERGY AND GRADIENT CALCULATIONS
 +++++++++++++++++++++++++++++++++++++++++++++++++++++++++++++++++++++++++++++++
 FINALRUN OPTION: RE-STARTING OPTIMIZATION
 +++++++++++++++++++++++++++++++++++++++++++++++++++++++++++++++++++++++++++++++
 TTTTTTTTTTTTTTTTTTTTTTTTTTTTTT OPTI        TELAPSE       72.94 TCPU       69.61
 *******************************************************************************
 COORDINATE AND CELL OPTIMIZATION - POINT   13
 *******************************************************************************
 LATTICE PARAMETERS (ANGSTROMS AND DEGREES) - BOHR = 0.5291772083 ANGSTROM
 PRIMITIVE CELL - CENTRING CODE 1/0 VOLUME=   127.226412 - DENSITY  3.496 g/cm^3
         A              B              C           ALPHA      BETA       GAMMA 
     4.50522119     4.50522119     7.23793052    90.000000  90.000000 120.000000
 *******************************************************************************
 ATOMS IN THE ASYMMETRIC UNIT    2 - ATOMS IN THE UNIT CELL:    4
     ATOM                 X/A                 Y/B                 Z/C    
 *******************************************************************************
      1 T   3 LI   -3.333333333333E-01  3.333333333333E-01  4.974748651217E-01
      2 F   3 LI    3.333333333333E-01 -3.333333333333E-01 -2.525134878291E-03
      3 T 253 I    -3.333333333333E-01  3.333333333333E-01 -1.224748651217E-01
      4 F 253 I     3.333333333333E-01 -3.333333333333E-01  3.775251348783E-01

 T = ATOM BELONGING TO THE ASYMMETRIC UNIT

 REFERENCE GEOMETRY WILL BE CHANGED

 TOTAL ENERGY(DFT)(AU)(  6) -6.0660441502868E+02     DE (AU)   -1.341E-05

 SYMMETRY ALLOWED FORCES  (COORDINATE, FORCE)

    1  7.6566072E-07    2 -1.8440417E-05    3  5.4849684E-05

 GRADIENT NORM     0.000058  GRADIENT THRESHOLD     0.500000

 HESSIAN UPDATE SKIPPED

 EIGENVALUES OF THE ESTIMATED HESSIAN
  0.3728E-02  0.3348E-01  0.5073E-01

 PREDICTED ENERGY CHANGE    -0.325E-06

 MAX GRADIENT      0.000055  THRESHOLD              0.000045 CONVERGED NO
 RMS GRADIENT      0.000033  THRESHOLD              0.000030 CONVERGED NO
 MAX DISPLAC.      0.011651  THRESHOLD              0.000180 CONVERGED NO
 RMS DISPLAC.      0.007497  THRESHOLD              0.000120 CONVERGED NO
 TTTTTTTTTTTTTTTTTTTTTTTTTTTTTT OPTI        TELAPSE       78.33 TCPU       74.94
 *******************************************************************************
 COORDINATE AND CELL OPTIMIZATION - POINT   14
 *******************************************************************************
 LATTICE PARAMETERS (ANGSTROMS AND DEGREES) - BOHR = 0.5291772083 ANGSTROM
 PRIMITIVE CELL - CENTRING CODE 1/0 VOLUME=   127.201833 - DENSITY  3.496 g/cm^3
         A              B              C           ALPHA      BETA       GAMMA 
     4.50753372     4.50753372     7.22910893    90.000000  90.000000 120.000000
 *******************************************************************************
 ATOMS IN THE ASYMMETRIC UNIT    2 - ATOMS IN THE UNIT CELL:    4
     ATOM                 X/A                 Y/B                 Z/C    
 *******************************************************************************
      1 T   3 LI   -3.333333333333E-01  3.333333333333E-01  4.972696111329E-01
      2 F   3 LI    3.333333333333E-01 -3.333333333333E-01 -2.730388867100E-03
      3 T 253 I    -3.333333333333E-01  3.333333333333E-01 -1.222696111329E-01
      4 F 253 I     3.333333333333E-01 -3.333333333333E-01  3.777303888671E-01

 T = ATOM BELONGING TO THE ASYMMETRIC UNIT

 TOTAL ENERGY(DFT)(AU)(  8) -6.0660441452252E+02     DE (AU)    5.062E-07

 UPDATED TRUST RADIUS     0.325E-02
 ENERGY CHANGE > 0: STEP REJECTED. RETRYING WITH A NEW STEP

 EIGENVALUES OF THE ESTIMATED HESSIAN
  0.3728E-02  0.3348E-01  0.5073E-01
 NEWTON STEP ( 0.1298542429E-01) EXCEEDS TRUST RADIUS ( 0.3246356074E-02)
 LEVEL SHIFT    -0.1115717126E-01

 PREDICTED ENERGY CHANGE    -0.147E-06

 MAX GRADIENT      0.000055  THRESHOLD              0.000045 CONVERGED NO
 RMS GRADIENT      0.000033  THRESHOLD              0.000030 CONVERGED NO
 MAX DISPLAC.      0.003007  THRESHOLD              0.000180 CONVERGED NO
 RMS DISPLAC.      0.001874  THRESHOLD              0.000120 CONVERGED NO
 TTTTTTTTTTTTTTTTTTTTTTTTTTTTTT OPTI        TELAPSE       82.29 TCPU       78.85
 *******************************************************************************
 COORDINATE AND CELL OPTIMIZATION - POINT   15
 *******************************************************************************
 LATTICE PARAMETERS (ANGSTROMS AND DEGREES) - BOHR = 0.5291772083 ANGSTROM
 PRIMITIVE CELL - CENTRING CODE 1/0 VOLUME=   127.212806 - DENSITY  3.496 g/cm^3
         A              B              C           ALPHA      BETA       GAMMA 
     4.50573210     4.50573210     7.23551534    90.000000  90.000000 120.000000
 *******************************************************************************
 ATOMS IN THE ASYMMETRIC UNIT    2 - ATOMS IN THE UNIT CELL:    4
     ATOM                 X/A                 Y/B                 Z/C    
 *******************************************************************************
      1 T   3 LI   -3.333333333333E-01  3.333333333333E-01  4.974340233215E-01
      2 F   3 LI    3.333333333333E-01 -3.333333333333E-01 -2.565976678523E-03
      3 T 253 I    -3.333333333333E-01  3.333333333333E-01 -1.224340233215E-01
      4 F 253 I     3.333333333333E-01 -3.333333333333E-01  3.775659766785E-01

 T = ATOM BELONGING TO THE ASYMMETRIC UNIT

 TOTAL ENERGY(DFT)(AU)(  8) -6.0660441498685E+02     DE (AU)    4.183E-08

 UPDATED TRUST RADIUS     0.812E-03

 SYMMETRY ALLOWED FORCES  (COORDINATE, FORCE)

    1 -1.0566726E-05    2 -4.4472799E-06    3  3.5963366E-05

 GRADIENT NORM     0.000038  GRADIENT THRESHOLD     0.500000

 EIGENVALUES OF THE ESTIMATED HESSIAN
  0.3654E-02  0.3413E-01  0.4909E-01
 NEWTON STEP ( 0.1007829827E-01) EXCEEDS TRUST RADIUS ( 0.8115890184E-03)
 LEVEL SHIFT    -0.4171236780E-01

 PREDICTED ENERGY CHANGE    -0.291E-07

 MAX GRADIENT      0.000036  THRESHOLD              0.000045 CONVERGED YES
 RMS GRADIENT      0.000022  THRESHOLD              0.000030 CONVERGED YES
 MAX DISPLAC.      0.000751  THRESHOLD              0.000180 CONVERGED NO
 RMS DISPLAC.      0.000469  THRESHOLD              0.000120 CONVERGED NO
 TTTTTTTTTTTTTTTTTTTTTTTTTTTTTT OPTI        TELAPSE       88.29 TCPU       84.79
 *******************************************************************************
 COORDINATE AND CELL OPTIMIZATION - POINT   16
 *******************************************************************************
 LATTICE PARAMETERS (ANGSTROMS AND DEGREES) - BOHR = 0.5291772083 ANGSTROM
 PRIMITIVE CELL - CENTRING CODE 1/0 VOLUME=   127.210933 - DENSITY  3.496 g/cm^3
         A              B              C           ALPHA      BETA       GAMMA 
     4.50587759     4.50587759     7.23494158    90.000000  90.000000 120.000000
 *******************************************************************************
 ATOMS IN THE ASYMMETRIC UNIT    2 - ATOMS IN THE UNIT CELL:    4
     ATOM                 X/A                 Y/B                 Z/C    
 *******************************************************************************
      1 T   3 LI   -3.333333333333E-01  3.333333333333E-01  4.974230983768E-01
      2 F   3 LI    3.333333333333E-01 -3.333333333333E-01 -2.576901623224E-03
      3 T 253 I    -3.333333333333E-01  3.333333333333E-01 -1.224230983768E-01
      4 F 253 I     3.333333333333E-01 -3.333333333333E-01  3.775769016232E-01

 T = ATOM BELONGING TO THE ASYMMETRIC UNIT

 TOTAL ENERGY(DFT)(AU)(  7) -6.0660441496665E+02     DE (AU)    2.020E-08

 UPDATED TRUST RADIUS     0.203E-03

 SYMMETRY ALLOWED FORCES  (COORDINATE, FORCE)

    1 -1.2651978E-05    2 -2.5440761E-06    3  3.1605821E-05

 GRADIENT NORM     0.000034  GRADIENT THRESHOLD     0.500000

 EIGENVALUES OF THE ESTIMATED HESSIAN
  0.3613E-02  0.3444E-01  0.4897E-01
 NEWTON STEP ( 0.9380951672E-02) EXCEEDS TRUST RADIUS ( 0.2028972546E-03)
 LEVEL SHIFT    -0.1634190780E+00

 PREDICTED ENERGY CHANGE    -0.684E-08

 MAX GRADIENT      0.000032  THRESHOLD              0.000045 CONVERGED YES
 RMS GRADIENT      0.000020  THRESHOLD              0.000030 CONVERGED YES

 WARNINGWARNINGWARNINGWARNINGWARNINGWARNINGWARNINGWARNINGWARNINGWARNINGWARNING

 CONVERGENCE ON GRADIENT - NO CHANGE IN ENERGY FOR   2 STEPS

 CONVERGENCE TESTS SATISFIED AFTER  16 ENERGY AND GRADIENT CALCULATIONS

 WARNINGWARNINGWARNINGWARNINGWARNINGWARNINGWARNINGWARNINGWARNINGWARNINGWARNING

 +++++++++++++++++++++++++++++++++++++++++++++++++++++++++++++++++++++++++++++++
 FINALRUN OPTION: RE-STARTING OPTIMIZATION
 +++++++++++++++++++++++++++++++++++++++++++++++++++++++++++++++++++++++++++++++
 TTTTTTTTTTTTTTTTTTTTTTTTTTTTTT OPTI        TELAPSE       93.96 TCPU       90.40
 *******************************************************************************
 COORDINATE AND CELL OPTIMIZATION - POINT   17
 *******************************************************************************
 LATTICE PARAMETERS (ANGSTROMS AND DEGREES) - BOHR = 0.5291772083 ANGSTROM
 PRIMITIVE CELL - CENTRING CODE 1/0 VOLUME=   127.210552 - DENSITY  3.496 g/cm^3
         A              B              C           ALPHA      BETA       GAMMA 
     4.50591469     4.50591469     7.23480074    90.000000  90.000000 120.000000
 *******************************************************************************
 ATOMS IN THE ASYMMETRIC UNIT    2 - ATOMS IN THE UNIT CELL:    4
     ATOM                 X/A                 Y/B                 Z/C    
 *******************************************************************************
      1 T   3 LI   -3.333333333333E-01  3.333333333333E-01  4.974202315856E-01
      2 F   3 LI    3.333333333333E-01 -3.333333333333E-01 -2.579768414378E-03
      3 T 253 I    -3.333333333333E-01  3.333333333333E-01 -1.224202315856E-01
      4 F 253 I     3.333333333333E-01 -3.333333333333E-01  3.775797684144E-01

 T = ATOM BELONGING TO THE ASYMMETRIC UNIT

 REFERENCE GEOMETRY WILL BE CHANGED

 TOTAL ENERGY(DFT)(AU)(  6) -6.0660446316657E+02     DE (AU)   -4.820E-05

 SYMMETRY ALLOWED FORCES  (COORDINATE, FORCE)

    1 -1.1871243E-05    2 -3.4496865E-05    3  1.1804055E-05

 GRADIENT NORM     0.000038  GRADIENT THRESHOLD     0.500000

 HESSIAN UPDATE SKIPPED

 EIGENVALUES OF THE ESTIMATED HESSIAN
  0.3613E-02  0.3444E-01  0.4897E-01
 NEWTON STEP ( 0.4614569835E-02) EXCEEDS TRUST RADIUS ( 0.2028972546E-03)
 LEVEL SHIFT    -0.7662783792E-01

 PREDICTED ENERGY CHANGE    -0.717E-08

 MAX GRADIENT      0.000034  THRESHOLD              0.000045 CONVERGED YES
 RMS GRADIENT      0.000022  THRESHOLD              0.000030 CONVERGED YES
 MAX DISPLAC.      0.000170  THRESHOLD              0.000180 CONVERGED YES
 RMS DISPLAC.      0.000117  THRESHOLD              0.000120 CONVERGED YES

 CONVERGENCE TESTS SATISFIED AFTER  17 ENERGY AND GRADIENT CALCULATIONS

 ******************************************************************
 * OPT END - CONVERGED * E(AU):  -6.066044631666E+02  POINTS   17 *
 ******************************************************************

   BAND GAP:                      7.6149  eV 

 EIGENVECTORS IN FORTRAN UNIT  8

 NEIGHBORS OF THE NON-EQUIVALENT ATOMS

 N = NUMBER OF NEIGHBORS AT DISTANCE R
    ATOM  N     R/ANG      R/AU   NEIGHBORS (ATOM LABELS AND CELL INDICES)
   1 LI   3     2.7422     5.1819    4 I    0 0 0    4 I    1 0 0    4 I    0-1 0
   1 LI   1     2.7504     5.1975    3 I    0 0 1
   1 LI   6     4.4557     8.4201    2 LI   0 0 0    2 LI   1 0 0    2 LI   0-1 0
                                     2 LI   0 0 1    2 LI   1 0 1    2 LI   0-1 1
   1 LI   1     4.4844     8.4743    3 I    0 0 0
   1 LI   6     4.5059     8.5149    1 LI  -1-1 0    1 LI   1 1 0    1 LI  -1 0 0
                                     1 LI   1 0 0    1 LI   0-1 0    1 LI   0 1 0
   1 LI   3     5.2747     9.9678    4 I   -1-1 0    4 I    1 1 0    4 I    1-1 0

   3 I    3     2.7422     5.1819    2 LI   0 0 0    2 LI   1 0 0    2 LI   0-1 0
   3 I    1     2.7504     5.1975    1 LI   0 0-1
   3 I    6     4.4557     8.4201    4 I    0 0 0    4 I    1 0 0    4 I    0-1 0
                                     4 I    0 0-1    4 I    1 0-1    4 I    0-1-1
   3 I    1     4.4844     8.4743    1 LI   0 0 0
   3 I    6     4.5059     8.5149    3 I   -1-1 0    3 I    1 1 0    3 I   -1 0 0
                                     3 I    1 0 0    3 I    0-1 0    3 I    0 1 0
   3 I    3     5.2747     9.9678    2 LI  -1-1 0    2 LI   1 1 0    2 LI   1-1 0


 FINAL OPTIMIZED GEOMETRY - DIMENSIONALITY OF THE SYSTEM      3
 (NON PERIODIC DIRECTION: LATTICE PARAMETER FORMALLY SET TO 500)
 *******************************************************************************
 LATTICE PARAMETERS (ANGSTROMS AND DEGREES) - BOHR = 0.5291772083 ANGSTROM
 PRIMITIVE CELL - CENTRING CODE 1/0 VOLUME=   127.210552 - DENSITY  3.496 g/cm^3
         A              B              C           ALPHA      BETA       GAMMA 
     4.50591469     4.50591469     7.23480074    90.000000  90.000000 120.000000
 *******************************************************************************
 ATOMS IN THE ASYMMETRIC UNIT    2 - ATOMS IN THE UNIT CELL:    4
     ATOM                 X/A                 Y/B                 Z/C    
 *******************************************************************************
      1 T   3 LI   -3.333333333333E-01  3.333333333333E-01  4.974202315856E-01
      2 F   3 LI    3.333333333333E-01 -3.333333333333E-01 -2.579768414378E-03
      3 T 253 I    -3.333333333333E-01  3.333333333333E-01 -1.224202315856E-01
      4 F 253 I     3.333333333333E-01 -3.333333333333E-01  3.775797684144E-01

 T = ATOM BELONGING TO THE ASYMMETRIC UNIT
 INFORMATION **** fort.34 **** GEOMETRY OUTPUT FILE

 DIRECT LATTICE VECTORS CARTESIAN COMPONENTS (ANGSTROM)
          X                    Y                    Z
   0.390223659250E+01  -0.225295734712E+01   0.000000000000E+00
  -0.257587869405E-17   0.450591469425E+01   0.000000000000E+00
   0.000000000000E+00   0.000000000000E+00   0.723480074491E+01


 CARTESIAN COORDINATES - PRIMITIVE CELL
 *******************************************************************************
 *      ATOM          X(ANGSTROM)         Y(ANGSTROM)         Z(ANGSTROM)
 *******************************************************************************
    1     3 LI   -1.300745530835E+00 -2.252957347124E+00  3.598736262011E+00
    2     3 LI   -2.601491061670E+00  6.931580473287E-17 -1.866411044605E-02
    3   253 I    -1.300745530835E+00 -2.252957347124E+00 -8.856859826682E-01
    4   253 I    -2.601491061670E+00  6.931580473287E-17  2.731714389789E+00

 DFT PARAMETERS

     ATOM       ELECTRONS   NET CHARGE   R(ANGSTROM)
   1   3  LI      3.0000      0.0000     1.57000000
   3 253  I      25.0000      0.0000     1.33000000

 SIZE OF GRID=      19004
 TTTTTTTTTTTTTTTTTTTTTTTTTTTTTT MAKE_GRID2  TELAPSE      100.00 TCPU       96.38
 BECKE WEIGHT FUNCTION
 RADSAFE =     2.00
 TOLERANCES - DENSITY:10**- 6; POTENTIAL:10**- 9; GRID WGT:10**-14

 RADIAL INTEGRATION  - INTERVALS (POINTS,UPPER LIMIT):            1( 99,  4.0*R)

 ANGULAR INTEGRATION - INTERVALS (ACCURACY LEVEL [N. POINTS] UPPER LIMIT):
  1(  6[ 146]   0.2)  2( 11[ 302]   0.5)  3( 14[ 590]   0.9)  4( 18[1454]   3.5)
  5( 14[ 590]9999.0)
 EEEEEEEEEE INT_CALC TERMINATION  DATE 25 07 2023 TIME 17:27:47.4

 *******************************************************************************
 ICSD_CollCode414242.cif                                                         
 CRYSTAL - SCF - TYPE OF CALCULATION :  RESTRICTED CLOSED SHELL
 *******************************************************************************

 CAPPA:IS1  8;IS2  8;IS3  8; K PTS MONK NET  50; SYMMOPS:K SPACE  24;G SPACE  12

 TTTTTTTTTTTTTTTTTTTTTTTTTTTTTT SDIK        TELAPSE      100.03 TCPU       96.40

 INFORMATION FROM INTEGRAL EVALUATION

 RESTART FROM A PREVIOUS DENSITY MATRIX - DEP ACTIVE
 NUMBER OF COUPLE SETS (NEW, OLD, FOUND):     280     280     280
 NUMBER OF IRREDUCIBLE G VECTORS        :    2785    2785    2785
 TTTTTTTTTTTTTTTTTTTTTTTTTTTTTT MOQGAD      TELAPSE      100.03 TCPU       96.41
 TTTTTTTTTTTTTTTTTTTTTTTTTTTTTT SHELLXN     TELAPSE      100.28 TCPU       96.65
 TTTTTTTTTTTTTTTTTTTTTTTTTTTTTT MONMO3      TELAPSE      100.30 TCPU       96.67
 NUMERICALLY INTEGRATED DENSITY     56.0000080504
 TTTTTTTTTTTTTTTTTTTTTTTTTTTTTT NUMDFT      TELAPSE      100.33 TCPU       96.70
 CYC   0 ETOT(AU) -6.066044631666E+02 DETOT -6.07E+02 tst  2.39E-18 PX  1.00E+00
 TTTTTTTTTTTTTTTTTTTTTTTTTTTTTT DIIS        TELAPSE      100.33 TCPU       96.70
 TTTTTTTTTTTTTTTTTTTTTTTTTTTTTT FDIK        TELAPSE      100.35 TCPU       96.72
 INSULATING STATE
 TOP OF VALENCE BANDS -    BAND     28; K    1; EIG -2.6951871E-01 AU
 BOTTOM OF VIRTUAL BANDS - BAND     29; K   35; EIG  1.0324414E-02 AU
 INDIRECT ENERGY BAND GAP:   7.6149 eV
 BOTTOM OF VIRTUAL BANDS - BAND     29; K    1; EIG  1.8604616E-02 AU
 TTTTTTTTTTTTTTTTTTTTTTTTTTTTTT PDIG        TELAPSE      100.36 TCPU       96.72
 TTTTTTTTTTTTTTTTTTTTTTTTTTTTTT MOQGAD      TELAPSE      100.36 TCPU       96.73
 TTTTTTTTTTTTTTTTTTTTTTTTTTTTTT SHELLXN     TELAPSE      100.61 TCPU       96.97
 TTTTTTTTTTTTTTTTTTTTTTTTTTTTTT MONMO3      TELAPSE      100.63 TCPU       96.99
 NUMERICALLY INTEGRATED DENSITY     56.0000080504
 TTTTTTTTTTTTTTTTTTTTTTTTTTTTTT NUMDFT      TELAPSE      100.66 TCPU       97.02
 CYC   1 ETOT(AU) -6.066044631666E+02 DETOT  2.27E-12 tst  0.00E+00 PX  6.52E-10
[...]
 TTTTTTTTTTTTTTTTTTTTTTTTTTTTTT SYMM        TELAPSE      322.02 TCPU      315.40
 TTTTTTTTTTTTTTTTTTTTTTTTTTTTTT INT_SCREEN  TELAPSE      322.03 TCPU      315.40
 TTTTTTTTTTTTTTTTTTTTTTTTTTTTTT RAMAN       TELAPSE      322.03 TCPU      315.40


 *******************************************************************************
 *                                                                             *
 *                                                                             *
 *         FFFFF  RRRR   EEEE   QQQ   U   U  EEEE  N   N   CCC  Y   Y          *
 *         F      R   R  E     Q   Q  U   U  E     NN  N  C      Y Y           *
 *         FFF    RRRR   EEEE  Q   Q  U   U  EEEE  N N N  C       Y            *
 *         F      R   R  E     Q  QQ  U   U  E     N  NN  C       Y            *
 *         F      R   R  EEEE   QQ Q   UUU   EEEE  N   N   CCC    Y            *
 *                                                                             *
 *                                                                             *
 * CALCULATION OF PHONON FREQUENCIES AT THE GAMMA POINT.                       *
 *                                                                             *
 * SYMMETRY IS EXPLOITED TO BUILD THE TOTAL HESSIAN MATRIX.                    *
 * (F. PASCALE PHD THESIS TURIN-PARIS 2002)                                    *
 *                                                                             *
 *******************************************************************************


 * INTENSITIES COMPUTED VIA THE CPHF ANALYTICAL APPROACH                       *
 *                                                                             *
 * REFERENCES TO BE QUOTED WHEN USING THIS MODULE:                             *
 *                                                                             *
 * F. Pascale, C.M. Zicovich-Wilson, F. Lopez, B. Civalleri                    *
 * R. Orlando, R. Dovesi                                                       *
 * The calculation of the vibration frequencies of crystalline                 *
 * compounds and its implementation in the CRYSTAL code                        *
 * J. Comput. Chem. 25 (2004) 888-897                                          *
 *                                                                             *
 * C.M. Zicovich-Wilson, F. Pascale, C. Roetti, V.R. Saunders,                 *
 * R. Orlando, R. Dovesi                                                       *
 * The calculation of the vibration frequencies of alpha-quartz:               *
 * the effect of hamiltonian and basis set                                     *
 * J. Comput. Chem. 25 (2004) 1873-1881                                        *
 *******************************************************************************


 *                                                                             *
 * FOR THE ANALYTICAL IR INTENSITIES MODULE PLEASE CITE:                       *
 *                                                                             *
 * L. Maschio, B. Kirtman, R. Orlando, M. Rerat,                               *
 * Ab initio analytical infrared intensities for periodic systems              *
 * through a coupled perturbed Hartree-Fock/Kohn-Sham method                   *
 * J. Chem. Phys. 137, 204113 (2012)                                           *
 *******************************************************************************



 ATOMS ISOTOPIC MASS (AMU) FOR FREQUENCY CALCULATION 

    1 LI      7.0160    2 LI      7.0160    3 I     126.9044    4 I     126.9044

 INFORMATION CONCERNING THE SCF+GRADIENT CALCULATIONS REQUIRED FOR
 GENERATING FREQUENCIES. IN PRINCIPLE 3N+1 SCF + GRADIENT
 CALCULATIONS  ARE REQUIRED;
 FOR EACH OF THEM THE REMAINING POINT SYMMETRY IS INDICATED.
 POINT SYMMETRY PERMITS TO GENERATE GRADIENTS FOR DISPLACEMENT B 
 STARTING FROM THE GRADIENT GENERATED BY DISPLACEMENT A.

   N   LABEL SYMBOL DISPLACEMENT     SYM. 

   1     EQUILIBRIUM GEOMETRY           12

   2      1   LI           DX           2
   3      1   LI           DY        GENERATED FROM LINE X WITH OP   3
   4      1   LI           DZ           6
   5      3   I            DX           2
   6      3   I            DY        GENERATED FROM LINE X WITH OP   3
   7      3   I            DZ           6
 USE OF RESIDUAL SYMMETRY AFTER DISPLACEMENT

 NUMERICAL GRADIENT COMPUTED WITH A SINGLE DISPLACEMENT (+DX) FOR EACH
 CARTESIAN COORDINATE WITH RESPECT TO THE EQUILIBRIUM CONFIGURATION
 DX=  0.003 ANGSTROM
 NUMBER OF IRREDUCIBLE ATOMS                     2
 NUMBER OF SCF+GRADIENT CALCULATIONS             5

  ATOM  SYMOP  ORDER
    1      6      3
    3      6      3

 ATOM  : IRREDUCIBLE ATOM
 SYMOP : NUMBER OF SYMMETRY OPERATORS THAT DOESN'T MOVE THE IRREDUCIBLE ATOM
 ORDER : MAXIMUM ORDER AMONG THE OPERATORS OF THE IRREDUCIBLE ATOM

 *******************************************************************************

 TTTTTTTTTTTTTTTTTTTTTTTTTTTTTT gordsh1     TELAPSE      322.03 TCPU      315.40

 MATRIX SIZE: P(G)  267330, F(G)   21614, P(G) IRR   18051, F(G) IRR    3841
 MAX G-VECTOR INDEX FOR 1- AND 2-ELECTRON INTEGRALS 341

 TTTTTTTTTTTTTTTTTTTTTTTTTTTTTT INPUT       TELAPSE      322.03 TCPU      315.40

 SYMMETRY ALLOWED INTERNAL DEGREE(S) OF FREEDOM:   1
 TTTTTTTTTTTTTTTTTTTTTTTTTTTTTT SYMM        TELAPSE      322.04 TCPU      315.41
 TTTTTTTTTTTTTTTTTTTTTTTTTTTTTT INT_SCREEN  TELAPSE      322.04 TCPU      315.41

 HHHHHHHHHHHHHHHHHHHHHHHHHHHHHHHHHHHHHHHHHHHHHHHHHHHHHHHHHHHHHHHHHHHHHHHHHHHHHHH
                   FORCE CONSTANT MATRIX - NUMERICAL ESTIMATE
 HHHHHHHHHHHHHHHHHHHHHHHHHHHHHHHHHHHHHHHHHHHHHHHHHHHHHHHHHHHHHHHHHHHHHHHHHHHHHHH
 MAX ABS(DGRAD): MAXIMUM ABSOLUTE GRADIENT DIFFERENCE WITH RESPECT TO
                 THE CENTRAL POINT
 DE:             ENERGY DIFFERENCE WITH RESPECT TO THE CENTRAL POINT
                 (DE IS EXPECTED TO BE POSITIVE FOR ALL DISPLACEMENTS)

   ATOM      MAX ABS(DGRAD)       TOTAL ENERGY (AU)  N.CYC      DE       SYM
    CENTRAL POINT             -6.066044631666E+02     0     0.0000E+00    12
    1 LI DX   1.1873E-04      -6.066044626862E+02     5     4.8033E-07     2
    1 LI DY                   GENERATED FROM A PREVIOUS LINE
    1 LI DZ   1.3637E-04      -6.066044628914E+02     9     2.7513E-07     6
    3 I  DX   1.3109E-04      -6.066044626514E+02     7     5.1512E-07     2
    3 I  DY                   GENERATED FROM A PREVIOUS LINE
    3 I  DZ   1.6090E-04      -6.066044625324E+02     9     6.3419E-07     6

 GCALCO - MAX INDICES DIRECT LATTICE VECTOR    18    18     9
 NO.OF VECTORS CREATED 6999 STARS  372 RMAX   112.42412 BOHR

 CAPPA:IS1  8;IS2  8;IS3  8; K PTS MONK NET  50; SYMMOPS:K SPACE  24;G SPACE  12

 TTTTTTTTTTTTTTTTTTTTTTTTTTTTTT gordsh1     TELAPSE      355.55 TCPU      348.61

 MATRIX SIZE: P(G)  267330, F(G)   21614, P(G) IRR   18051, F(G) IRR    3841
 MAX G-VECTOR INDEX FOR 1- AND 2-ELECTRON INTEGRALS 341

 TTTTTTTTTTTTTTTTTTTTTTTTTTTTTT INPUT       TELAPSE      355.55 TCPU      348.61

 SYMMETRY ALLOWED INTERNAL DEGREE(S) OF FREEDOM:   1
 TTTTTTTTTTTTTTTTTTTTTTTTTTTTTT SYMM        TELAPSE      355.56 TCPU      348.62
 TTTTTTTTTTTTTTTTTTTTTTTTTTTTTT INT_SCREEN  TELAPSE      355.57 TCPU      348.62

 ATOMIC BORN CHARGE TENSOR (UNITS OF e, ELECTRON CHARGE).
 DYNAMIC CHARGE = 1/3 * TRACE .

 ATOM   1 LI DYNAMIC CHARGE     1.049805

              1           2           3
   1     1.0397E+00  8.3305E-18  1.5208E-25
   2     1.2570E-17  1.0397E+00 -4.5389E-24
   3    -2.6031E-25  1.6318E-25  1.0700E+00

 ATOM   2 LI DYNAMIC CHARGE     1.049805

              1           2           3
   1     1.0397E+00  0.0000E+00  4.6177E-24
   2     3.3807E-18  1.0397E+00 -1.5124E-24
   3    -2.0968E-25  6.8932E-26  1.0700E+00

 ATOM   3 I  DYNAMIC CHARGE    -1.049806

              1           2           3
   1    -1.0397E+00 -8.3305E-18  7.2816E-24
   2    -5.8776E-18 -1.0397E+00 -2.1687E-24
   3     2.8605E-25 -6.1164E-25 -1.0700E+00

 ATOM   4 I  DYNAMIC CHARGE    -1.049806

              1           2           3
   1    -1.0397E+00  9.2519E-18  2.8013E-24
   2     7.3764E-18 -1.0397E+00 -5.0918E-25
   3     1.6568E-25  1.3786E-25 -1.0700E+00

 +++ SYMMETRY ADAPTION OF VIBRATIONAL MODES +++

 SYMMETRY INFORMATION:
 K-LITTLE GROUP: CLASS TABLE, CHARACTER TABLE.
 IRREP-(DIMENSION, NO. IRREDUCIBLE SETS)
 [WARNINGS: (1) ONLY ACTIVE IRREPS ARE GENERATED AND LISTED.
            (2) ONLY RELEVANT CLASSES ARE CONSIDERED IN THE CHARACTER TABLE
            (3) SYMBOLS MAY NOT FULLY COINCIDE WITH THOSE FROM TEXT BOOKS.]

 (P, D, RP, RD, STAND FOR PAIRING, DOUBLING, REAL PAIRING AND REAL DOUBLING 
 OF THE IRREPS (SEE MANUAL))

 CLASS  | GROUP OPERATORS (SEE SYMMOPS KEYWORD)
 --------------------------------------------------------------------
 C2     |   2;
 C3     |   3;   4;
 C6     |   5;   6;
 SGV    |   7;   8;   9;
 SGV'   |  10;  12;  11;

 IRREP/CLA      E     C2     C3     C6    SGV   SGV'
 ---------------------------------------------------
  MULTIP |      1      1      2      2      3      3
 ---------------------------------------------------
    A    |   1.00   1.00   1.00   1.00   1.00   1.00
    B    |   1.00  -1.00   1.00  -1.00   1.00  -1.00
    E1   |   2.00  -2.00  -1.00   1.00   0.00   0.00
    E2   |   2.00   2.00  -1.00  -1.00   0.00   0.00

 A  -(1,   2); B  -(1,   2); E1 -(2,   2); E2 -(2,   2);


 BORN CHARGE VECTOR IN THE BASIS OF NORMAL MODES (UNITS OF e*M_E**(-1/2) ).
 e AND M_E ARE UNITS OF ELECTRON CHARGE AND MASS, RESPECTIVELY.

 MODE         X              Y              Z
   1    0.13925E-08   -0.24973E-19    0.26131E-28
   2   -0.13241E-19    0.13925E-08    0.34585E-27
   3   -0.21256E-25    0.12493E-25    0.22665E-08
   4    0.37023E-19   -0.20551E-18    0.12071E-26
   5   -0.49440E-19    0.32049E-19   -0.24436E-27
   6    0.47972E-26   -0.36386E-26   -0.23797E-18
   7   -0.25639E-25    0.35931E-25   -0.13746E-01
   8   -0.44839E-19    0.21362E-18   -0.32311E-27
   9    0.90116E-19   -0.51518E-19    0.26803E-27
  10   -0.13356E-01   -0.96583E-19    0.30126E-26
  11   -0.50394E-19   -0.13356E-01   -0.15722E-26
  12   -0.28284E-25   -0.18730E-25    0.49118E-18

 HHHHHHHHHHHHHHHHHHHHHHHHHHHHHHHHHHHHHHHHHHHHHHHHHHHHHHHHHHHHHHHHHHHHHHHHHHHHHH
 VIBRATIONAL CONTRIBUTIONS TO THE STATIC DIELECTRIC TENSOR (OSCILLATOR
 STRENGTHS) ARE PURE NUMBERS. THEY ARE COMPUTED FOR EACH nth MODE AS:

   f_(n,ij) = 1 / (4 * pi * eps0) * 4 * pi / V * Z_(n,i) * Z_(n,j) / nu_n**2

 WHERE:
  1/(4*pi*eps0)  1 A.U. [M*L**3*T**(-4)*C**(-2)]
  V              CELL VOLUME (BOHR**3) [L**3]
  Z_(n,i)        ith COMPONENT OF BORN CHARGE VECTOR IN THE BASIS
                 OF NORMAL MODES ( e*M_E**(-1/2) ) [C*T*M**(-1/2)]
  nu_n           FREQUENCY (HARTREE) [T**(-1)]
  e, M_E         UNITS OF ELECTRON CHARGE AND MASS, RESPECTIVELY
  M, L, T, C     MASS, LENGTH, TIME, CURRENT, RESPECTIVELY

 HHHHHHHHHHHHHHHHHHHHHHHHHHHHHHHHHHHHHHHHHHHHHHHHHHHHHHHHHHHHHHHHHHHHHHHHHHHHHH

 MODE      CARTESIAN AXES SYSTEM

   7       0.00000   -0.00000    0.00000
          -0.00000    0.00000   -0.00000
           0.00000   -0.00000    1.74925

  10       1.47727    0.00000   -0.00000
           0.00000    0.00000   -0.00000
          -0.00000   -0.00000    0.00000

  11       0.00000    0.00000    0.00000
           0.00000    1.47727    0.00000
           0.00000    0.00000    0.00000

 SUM TENSOR OF THE VIBRATIONAL CONTRIBUTIONS TO THE STATIC DIELECTRIC     TENSOR

           1.47727    0.00000    0.00000
           0.00000    1.47727   -0.00000
           0.00000   -0.00000    1.74925

 INTEGRATED IR INTENSITIES, IN UNITS OF KM/MOL, ARE COMPUTED UNDER THE
 HYPOTHESIS OF ISOTROPIC RESPONSE (I.E. POWDER SAMPLE):

   INTENS_n = 1 / (4 * pi * eps0) * pi * N_AV / 3 / c**2 *
                             * d_n * ( Z_(n,x)**2 + Z_(n,y)**2 + Z_(n,z)**2 )
            = 0.17770712E+07 * d_n * ( Z_(n,x)**2 + Z_(n,y)**2 + Z_(n,z)**2 )

 WHERE:
  1/(4*pi*eps0)  1 A.U. [M*L**3*T**(-4)*C**(-2)]
  N_AV           AVOGADRO'S NUMBER [QM**(-1)]
  c              SPEED OF LIGHT [L*T**(-1)]
  d_n            DEGENERACY OF THE MODE
  Z_(n,x)        xth COMPONENT OF BORN CHARGE VECTOR IN THE BASIS
                 OF NORMAL MODES ( e*M_E**(-1/2) ) [C*T*M**(-1/2)]
  M,L,T,C,QM     MASS, LENGTH, TIME, CURRENT, QUANTITY OF MATTER, RESPECTIVELY

 HHHHHHHHHHHHHHHHHHHHHHHHHHHHHHHHHHHHHHHHHHHHHHHHHHHHHHHHHHHHHHHHHHHHHHHHHHHHHH
 EIGENVALUES (EIGV) OF THE MASS WEIGHTED HESSIAN MATRIX AND HARMONIC TRANSVERSE
 OPTICAL (TO) FREQUENCIES. IRREP LABELS REFER TO SYMMETRY REPRESENTATION
 ANALYSIS; A AND I INDICATE WHETHER THE MODE IS ACTIVE OR INACTIVE,
 RESPECTIVELY, FOR IR AND RAMAN; INTEGRATED IR INTENSITIES IN BRACKETS.

 CONVERSION FACTORS FOR FREQUENCIES:
      1 CM**(-1) =   0.4556335E-05 HARTREE
      1 THZ      =   0.3335641E+02 CM**(-1)

 HHHHHHHHHHHHHHHHHHHHHHHHHHHHHHHHHHHHHHHHHHHHHHHHHHHHHHHHHHHHHHHHHHHHHHHHHHHHHH

    MODES         EIGV          FREQUENCIES     IRREP  IR   INTENS    RAMAN
             (HARTREE**2)   (CM**-1)     (THZ)             (KM/MOL)
    1-   2   -0.2091E-22      0.0000    0.0000  (E1 )   A (     0.00)   A
    3-   3   -0.1066E-22      0.0000    0.0000  (A  )   A (     0.00)   A
    4-   5    0.2106E-07     31.8480    0.9548  (E2 )   I (     0.00)   A
    6-   6    0.1550E-06     86.4058    2.5904  (B  )   I (     0.00)   I
    7-   7    0.1581E-05    275.9723    8.2734  (A  )   A (   335.76)   A
    8-   9    0.1686E-05    284.9955    8.5440  (E2 )   I (     0.00)   A
   10-  11    0.1768E-05    291.7991    8.7479  (E1 )   A (   634.02)   A
   12-  12    0.2271E-05    330.7386    9.9153  (B  )   I (     0.00)   I

 <RAMAN><RAMAN><RAMAN><RAMAN><RAMAN><RAMAN><RAMAN><RAMAN><RAMAN><RAMAN><RAMAN>
 <RAMAN><RAMAN><RAMAN><RAMAN><RAMAN><RAMAN><RAMAN><RAMAN><RAMAN><RAMAN><RAMAN>

 RAMAN INTENSITIES UNDER PLACZECK APPROXIMATION ARE COMPUTED AS:

  DIRECTIONAL (SINGLE CRYSTAL) :

     I_ij(n)= VOLUME*X(n,i,j)**2

  ISOTROPIC (POLYCRYSTALLINE POWDERS, GASES) :

     G_0(n) = 1/3*(SUM_i X(n,i,i))**2
     G_1(n) = 1/2*SUM_i,j (X(n,i,j)+X(n,j,i))**2
     G_2(n) = 1/3*SUM_i,j (X(n,i,i)-X(n,j,j))**2

     I_par(n)  = VOLUME*( 15*G_0(n) + 6*(G_1(n) + G_2(n)) )
     I_perp(n) = VOLUME*9/2*( G_1(n) + G_2(n) )
     I_tot(n)  = I_par(n) + I_perp(n)

  WHERE X(n,i,j) IS THE i,j-th COMPONENT OF THE RAMAN TENSOR
  IN THE BASIS OF NORMAL MODE n

  ALL VALUES ARE NORMALIZED TO THE MOST INTENSE PEAK


  INTENSITIES HAVE BEEN CALCULATED AT 
  TEMPERATURE                  :    298.0 K
  FREQUENCY OF INCOMING LASER  :    514.0 NM


 REFERENCES TO BE QUOTED FOR RAMAN INTENSITIES:

 L.MASCHIO, B.KIRTMAN, M.RERAT, R.ORLANDO and R.DOVESI, JCP 139, 164101 (2013)
 L.MASCHIO, B.KIRTMAN, M.RERAT, R.ORLANDO and R.DOVESI, JCP 139, 164102 (2013)

  --
  POLYCRYSTALLINE ISOTROPIC INTENSITIES (ARBITRARY UNITS)

    MODES    FREQUENCIES           I_tot     I_par    I_perp
  ----------------------------------------------------------------
    4-   5       31.8480 (E2 )   1000.00    571.43    428.57
    7-   7      275.9723 (A  )    141.56    134.29      7.27
    8-   9      284.9955 (E2 )    719.29    411.02    308.27
   10-  11      291.7991 (E1 )    231.39    132.22     99.17

  --
  SINGLE CRYSTAL DIRECTIONAL INTENSITIES (ARBITRARY UNITS)

    MODES    FREQUENCIES          I_xx    I_xy    I_xz    I_yy    I_yz    I_zz
  ----------------------------------------------------------------------------
    4-   5       31.8480 (E2 ) 1000.00 1000.00    0.00  999.99    0.00    0.00
    7-   7      275.9723 (A  )  200.12    0.00    0.00  200.13    0.00   16.47
    8-   9      284.9955 (E2 )  719.28  719.29    0.00  719.30    0.00    0.00
   10-  11      291.7991 (E1 )    0.00    0.00  231.39    0.00  231.39    0.00

 <RAMAN><RAMAN><RAMAN><RAMAN><RAMAN><RAMAN><RAMAN><RAMAN><RAMAN><RAMAN><RAMAN>
 <RAMAN><RAMAN><RAMAN><RAMAN><RAMAN><RAMAN><RAMAN><RAMAN><RAMAN><RAMAN><RAMAN>


 NORMAL MODES NORMALIZED TO CLASSICAL AMPLITUDES (IN BOHR)

 FREQ(CM**-1)      0.00      0.00      0.00     31.85     31.85     86.41

 AT.   1 LI X    -0.0611    0.0000    0.0000    0.0000    0.1181    0.0000
            Y     0.0000   -0.0611    0.0000    0.1181    0.0000    0.0000
            Z     0.0000    0.0000   -0.0611    0.0000    0.0000    0.0200
 AT.   2 LI X    -0.0611    0.0000    0.0000    0.0000   -0.1181    0.0000
            Y     0.0000   -0.0611    0.0000   -0.1181    0.0000    0.0000
            Z     0.0000    0.0000   -0.0611    0.0000    0.0000   -0.0200
 AT.   3 I  X    -0.0611    0.0000    0.0000    0.0000   -0.1188    0.0000
            Y     0.0000   -0.0611    0.0000   -0.1188    0.0000    0.0000
            Z     0.0000    0.0000   -0.0611    0.0000    0.0000    0.0739
 AT.   4 I  X    -0.0611    0.0000    0.0000    0.0000    0.1188    0.0000
            Y     0.0000   -0.0611    0.0000    0.1188    0.0000    0.0000
            Z     0.0000    0.0000   -0.0611    0.0000    0.0000   -0.0739

 FREQ(CM**-1)    275.97    285.00    285.00    291.80    291.80    330.74

 AT.   1 LI X     0.0000    0.0000   -0.1690   -0.1669    0.0000    0.0000
            Y     0.0000   -0.1690    0.0000    0.0000   -0.1669    0.0000
            Z    -0.1716    0.0000    0.0000    0.0000    0.0000    0.1607
 AT.   2 LI X     0.0000    0.0000    0.1690   -0.1669    0.0000    0.0000
            Y     0.0000    0.1690    0.0000    0.0000   -0.1669    0.0000
            Z    -0.1716    0.0000    0.0000    0.0000    0.0000   -0.1607
 AT.   3 I  X     0.0000    0.0000   -0.0093    0.0092    0.0000    0.0000
            Y     0.0000   -0.0093    0.0000    0.0000    0.0092    0.0000
            Z     0.0095    0.0000    0.0000    0.0000    0.0000   -0.0024
 AT.   4 I  X     0.0000    0.0000    0.0093    0.0092    0.0000    0.0000
            Y     0.0000    0.0093    0.0000    0.0000    0.0092    0.0000
            Z     0.0095    0.0000    0.0000    0.0000    0.0000    0.0024

 *******************************************************************************

 VIBRATIONAL TEMPERATURES (K) [MODE NUMBER;IRREP]

 TO MODES
    45.8 [   4;E2 ]    45.8 [   5;E2 ]   124.3 [   6;B  ]   397.1 [   7;A  ]
   410.0 [   8;E2 ]   410.0 [   9;E2 ]   419.8 [  10;E1 ]   419.8 [  11;E1 ]
   475.9 [  12;B  ]

 *******************************************************************************

 HARMONIC VIBRATIONAL CONTRIBUTIONS TO THERMODYNAMIC FUNCTIONS AT GIVEN
 TEMPERATURE AND PRESSURE:

 (EL = ELECTRONIC ENERGY
  E0 = ZERO-POINT ENERGY
  ET = THERMAL CONTRIBUTION TO THE VIBRATIONAL ENERGY
  PV = PRESSURE * VOLUME
  TS = TEMPERATURE * ENTROPY)

                          AU/CELL             EV/CELL                 KJ/MOL
 EL            :    -606.604463166565  -16506.546619376582    -1592639.79360017
 E0            :       0.004352215885       0.118429815079          11.42674120


 *******************************************************************************

 THERMODYNAMIC FUNCTIONS WITH VIBRATIONAL CONTRIBUTIONS

 AT (T =  298.15 K, P =   0.10132500E+00 MPA):

                          AU/CELL             EV/CELL                 KJ/MOL
 ET            :       0.005081652655       0.138278798705          13.34187717
 PV            :       0.000002956506       0.000080450621           0.00776231
 TS            :       0.011360689233       0.309140070398          29.82748538
 ET+PV-TS      :      -0.006276080071      -0.170780821072         -16.47784591
 EL+E0+ET+PV-TS:    -606.606387030752  -16506.598970382576    -1592644.84470488

 OTHER THERMODYNAMIC FUNCTIONS:

                      mHARTREE/(CELL*K)     mEV/(CELL*K)              J/(MOL*K)
 ENTROPY       :       0.038103938396       1.036860876733         100.04187616
 HEAT CAPACITY :       0.025558588524       0.695484551501          67.10406471

 *******************************************************************************
 TTTTTTTTTTTTTTTTTTTTTTTTTTTTTT END         TELAPSE      355.60 TCPU      348.65
 EEEEEEEEEE TERMINATION  DATE 25 07 2023 TIME 17:32:03.0
